/*--------------------------------*- C++ -*----------------------------------*\
  =========                 |
  \\      /  F ield         | OpenFOAM: The Open Source CFD Toolbox
   \\    /   O peration     | Website:  https://openfoam.org
    \\  /    A nd           | Version:  11
     \\/     M anipulation  |
\*---------------------------------------------------------------------------*/
FoamFile
{
    format      ascii;
    class       volScalarField;
    location    "1.99414e-05";
    object      h.gas;
}
// * * * * * * * * * * * * * * * * * * * * * * * * * * * * * * * * * * * * * //

dimensions      [0 2 -2 0 0 0 0];

internalField   nonuniform List<scalar> 
120000
(
384421.82
384421.424
384420.628
384419.428
384417.815
384415.778
384413.306
384410.382
384406.988
384403.103
384398.704
384393.765
384388.256
384382.145
384375.399
384367.98
384359.846
384350.955
384341.259
384330.709
384319.251
384306.828
384293.38
384278.844
384263.153
384246.235
384228.019
384208.425
384187.373
384164.78
384140.559
384114.621
384086.874
384057.224
384025.576
383991.837
383955.911
383917.706
383877.135
383834.116
383788.577
383740.461
383689.732
383636.382
383580.44
383521.995
383461.207
383398.341
383333.8
383268.176
383202.313
383137.361
383074.878
383016.925
382966.146
382925.801
382899.648
382891.596
382914.573
382894.65
384336.108
384335.213
384333.416
384330.708
384327.074
384322.494
384316.945
384310.398
384302.82
384294.173
384284.417
384273.505
384261.387
384248.009
384233.314
384217.24
384199.723
384180.694
384160.083
384137.817
384113.821
384088.018
384060.331
384030.682
383998.996
383965.197
383929.215
383890.983
383850.44
383807.536
383762.228
383714.488
383664.306
383611.689
383556.669
383499.305
383439.69
383377.954
383314.274
383248.876
383182.049
383114.149
383045.61
382976.953
382908.785
382841.827
382776.911
382714.987
382657.126
382604.513
382558.436
382520.245
382491.297
382472.893
382466.147
382471.81
382490.985
382518.732
382578.176
382556.954
384243.287
384241.888
384239.079
384234.85
384229.183
384222.055
384213.434
384203.286
384191.568
384178.232
384163.226
384146.488
384127.957
384107.562
384085.231
384060.886
384034.448
384005.834
383974.959
383941.736
383906.081
383867.908
383827.134
383783.681
383737.476
383688.452
383636.553
383581.735
383523.969
383463.243
383399.567
383332.977
383263.539
383191.355
383116.569
383039.364
382959.974
382878.691
382795.876
382711.956
382627.438
382542.912
382459.058
382376.649
382296.552
382219.73
382147.244
382080.233
382019.895
381967.498
381924.277
381891.394
381869.875
381860.527
381864.748
381878.381
381901.124
381930.995
381989.996
381962.833
384145.759
384143.854
384140.032
384134.289
384126.612
384116.981
384105.37
384091.744
384076.06
384058.267
384038.307
384016.113
383991.614
383964.734
383935.389
383903.495
383868.962
383831.701
383791.62
383748.628
383702.639
383653.565
383601.328
383545.854
383487.079
383424.952
383359.439
383290.523
383218.202
383142.5
383063.471
382981.202
382895.818
382807.485
382716.419
382622.886
382527.211
382429.784
382331.066
382231.589
382131.967
382032.897
381935.16
381839.633
381747.274
381659.117
381576.219
381499.656
381435.559
381376.426
381328.172
381291.819
381268.266
381253.469
381253.611
381263.382
381281.643
381306.185
381358.224
381325.461
384047.69
384045.263
384040.407
384033.137
384023.461
384011.381
383996.887
383979.958
383960.558
383938.638
383914.141
383886.999
383857.135
383824.468
383788.912
383750.376
383708.769
383663.997
383615.969
383564.596
383509.793
383451.482
383389.587
383324.044
383254.803
383181.828
383105.101
383024.625
382940.428
382852.564
382761.123
382666.227
382568.041
382466.777
382362.694
382256.107
382147.388
382036.976
381925.382
381813.179
381701.018
381589.626
381479.794
381372.375
381273.391
381175.146
381083.484
380999.509
380924.375
380859.256
380805.265
380763.405
380734.812
380717.051
380710.375
380709.201
380721.535
380740.058
380784.618
380749.531
383952.254
383949.269
383943.323
383934.478
383922.793
383908.316
383891.07
383871.056
383848.249
383822.607
383794.071
383762.572
383728.03
383690.363
383649.481
383605.292
383557.703
383506.623
383451.961
383393.631
383331.554
383265.657
383195.875
383122.158
383044.469
382962.786
382877.11
382787.464
382693.897
382596.489
382495.351
382390.633
382282.529
382171.283
382057.186
381940.58
381821.865
381723.199
381602.253
381480.722
381359.266
381238.602
381101.664
380986.568
380876.216
380771.657
380673.991
380584.353
380503.892
380433.736
380374.961
380328.821
380293.277
380268.896
380255.56
380252.649
380258.897
380267.74
380305.304
380271
383861.266
383857.662
383850.533
383840.035
383826.322
383809.512
383789.674
383766.832
383740.974
383712.056
383680.018
383644.785
383606.275
383564.4
383519.068
383470.188
383417.669
383361.421
383301.358
383237.402
383169.479
383097.525
383021.489
382941.33
382857.025
382768.569
382675.976
382579.285
382478.565
382373.919
382265.481
382153.424
382037.958
381941.024
381820.35
381697.156
381571.85
381444.902
381316.837
381188.23
381062.41
380936.192
380812.821
380693.226
380578.393
380447.418
380345.911
380252.575
380168.509
380094.776
380032.407
379982.593
379943.172
379914.756
379897.228
379889.981
379891.79
379901.102
379927.414
379895.748
383775.269
383770.964
383762.54
383750.309
383734.563
383715.513
383693.277
383667.895
383639.357
383607.613
383572.597
383534.227
383492.413
383447.066
383398.093
383345.402
383288.905
383228.517
383164.159
383095.758
383023.25
382946.581
382865.71
382780.607
382691.264
382597.692
382499.925
382398.021
382292.065
382182.174
382089.86
381973.483
381853.731
381730.877
381605.236
381477.173
381347.116
381215.543
381082.981
380952.754
380821.537
380692.56
380566.666
380444.762
380327.811
380216.823
380112.842
380016.924
379908.79
379833.341
379769.201
379717.481
379675.981
379645.326
379625.394
379615.59
379614.728
379621.523
379642.981
379614.33
383693.856
383688.767
383678.94
383664.92
383647.177
383626.021
383601.608
383573.985
383543.133
383508.992
383471.482
383430.513
383385.991
383337.823
383285.914
383230.175
383170.522
383106.875
383039.16
382967.312
382891.276
382811.013
382726.492
382637.702
382544.646
382447.35
382345.861
382240.251
382151.965
382039.385
381923.087
381803.27
381680.175
381554.083
381425.324
381294.279
381161.383
381027.112
380894.74
380760.852
380628.613
380498.808
380372.279
380249.929
380132.712
380021.624
379917.689
379821.936
379735.402
379637.482
379574.097
379520.591
379477.727
379445.665
379424.22
379412.764
379410.113
379415.185
379433.209
379407.445
383616.027
383610.086
383598.791
383582.982
383563.33
383540.238
383513.885
383484.314
383451.488
383415.332
383375.753
383332.652
383285.929
383235.488
383181.235
383123.081
383060.947
382994.762
382924.46
382849.988
382771.301
382688.369
382601.175
382509.72
382414.021
382314.118
382210.073
382123.847
382012.756
381897.872
381779.374
381657.473
381532.417
381404.498
381274.055
381141.471
381007.163
380874.317
380739.477
380605.734
380473.812
380344.488
380218.597
380097.024
379980.7
379870.588
379767.667
379672.915
379587.331
379511.885
379426.295
379373.126
379330.329
379298.032
379276.02
379263.643
379259.713
379263.281
379283.471
379255.378
383540.492
383533.671
383520.907
383503.377
383481.954
383457.118
383429.063
383397.813
383363.314
383325.471
383284.177
383239.327
383190.817
383138.547
383082.428
383022.376
382958.315
382890.182
382817.918
382741.48
382660.833
382575.959
382486.853
382393.527
382296.013
382215.772
382111.008
382002.3
381889.776
381773.592
381653.94
381531.048
381405.181
381276.652
381145.819
381013.076
380878.861
380746.478
380612.3
380479.473
380348.689
380220.699
380096.309
379976.375
379861.791
379753.477
379652.359
379559.385
379475.509
379401.644
379316.546
379264.529
379222.62
379190.912
379169.165
379156.723
379152.419
379155.446
379174.125
379148.089
383465.904
383458.224
383444.06
383424.935
383401.912
383375.534
383345.994
383313.302
383277.381
383238.122
383195.409
383149.126
383099.167
383045.434
382987.838
382926.3
382860.751
382791.132
382717.397
382639.508
382557.445
382471.197
382380.774
382286.199
382209.169
382107.376
382001.638
381892.069
381778.806
381662.018
381541.906
381418.704
381292.69
381164.179
381033.523
380901.105
380770.128
380636.929
380504.566
380373.684
380244.975
380119.184
379997.103
379879.565
379767.431
379661.581
379562.905
379472.318
379390.724
379318.983
379258.066
379184.883
379144.345
379113.691
379092.656
379080.577
379076.304
379079.14
379096.821
379072.522
383390.999
383382.529
383367.096
383346.545
383322.109
383294.382
383263.558
383229.628
383192.5
383152.051
383108.156
383060.694
383009.558
382954.65
382895.884
382833.185
382766.492
382695.752
382620.926
382541.989
382458.926
382371.74
382301.508
382207.052
382108.599
382006.225
381900.025
381790.121
381676.662
381559.822
381439.808
381316.863
381191.267
381063.327
380933.377
380804.515
380673.081
380542.043
380411.993
380283.57
380157.458
380034.387
379915.13
379800.491
379691.296
379588.382
379492.609
379404.85
379325.949
379256.704
379198.018
379126.393
379087.476
379058.103
379037.993
379026.479
379022.43
379025.24
379042.225
379019.39
383314.676
383305.522
383288.991
383267.206
383241.547
383212.653
383180.718
383145.724
383107.566
383066.112
383021.229
382972.795
382920.702
382864.853
382805.166
382741.573
382674.017
382602.454
382526.855
382447.201
382363.491
382296.969
382206.084
382111.248
382012.525
381910.002
381803.789
381694.02
381580.853
381464.479
381345.12
381223.035
381098.514
380971.871
380843.465
380716.486
380587.13
380458.41
380330.893
380205.196
380081.986
379961.969
379845.896
379734.543
379628.703
379529.193
379436.862
379352.556
379277.102
379211.453
379154.119
379083.91
379046.396
379018.182
378998.941
378987.985
378984.188
378987.011
379003.474
378981.875
383236.012
383226.299
383208.859
383186.037
383159.334
383129.434
383096.54
383060.628
383021.587
382979.279
382933.568
382884.331
382831.46
382774.86
382714.456
382650.183
382581.992
382509.847
382433.727
382353.623
382290.946
382203.769
382112.689
382017.765
381919.071
381816.705
381710.785
381601.451
381488.871
381373.242
381254.794
381133.777
381010.466
380885.17
380760.976
380634.075
380507.404
380381.496
380256.924
380134.3
380014.278
379897.552
379784.844
379676.902
379574.469
379478.346
379389.337
379308.237
379235.813
379172.955
379118.118
379050
379014.35
378987.647
378969.55
378959.368
378955.996
378958.964
378975.052
378954.582
383154.245
383144.103
383125.943
383102.271
383074.689
383043.928
383010.205
382973.501
382933.701
382890.666
382844.261
382794.36
382740.858
382683.666
382622.71
382557.932
382489.289
382416.753
382361.239
382281.709
382198.306
382111.064
382020.03
381925.272
381826.875
381724.945
381619.611
381511.026
381399.37
381284.854
381167.71
381048.195
380926.602
380803.261
380681.337
380556.879
380432.867
380309.81
380188.258
380068.803
379952.076
379838.741
379729.487
379625.016
379526.06
379433.38
379347.734
379269.871
379200.507
379140.486
379088.236
379022.375
378988.685
378963.584
378946.713
378937.383
378934.508
378937.68
378953.48
378934.061
383068.746
383058.298
383039.596
383015.25
382986.941
382955.449
382921.015
382883.628
382843.18
382799.532
382752.55
382702.112
382648.115
382590.474
382529.12
382464.002
382395.084
382343.536
382267.761
382188.18
382104.818
382017.719
381926.938
381832.553
381734.658
381633.366
381528.813
381421.162
381310.599
381197.327
381081.571
380963.589
380843.665
380724.875
380603.258
380481.73
380360.768
380240.882
380122.619
380006.56
379893.321
379783.54
379677.872
379576.994
379481.616
379392.461
379310.246
379235.672
379169.41
379112.258
379062.621
378999.09
378967.377
378943.893
378928.265
378919.804
378917.449
378920.847
378936.411
378917.987
382978.98
382968.337
382949.255
382924.393
382895.496
382863.391
382828.35
382790.38
382749.38
382705.218
382657.763
382606.895
382552.517
382494.546
382432.921
382388.514
382320.208
382248.17
382172.404
382092.927
382009.775
381922.997
381832.66
381738.849
381641.666
381541.238
381437.714
381331.265
381222.077
381110.362
380996.362
380880.348
380762.619
380646.331
380527.377
380408.717
380290.807
380174.137
380059.235
379946.662
379837.007
379730.885
379628.892
379531.705
379439.999
379354.454
379275.741
379204.513
379141.384
379087.101
379040.049
378978.85
378949.068
378927.157
378912.733
378905.112
378903.257
378906.872
378922.226
378904.749
382884.479
382873.74
382854.423
382829.193
382799.837
382767.231
382731.684
382693.226
382651.769
382607.189
382559.36
382508.173
382453.527
382416.137
382355.077
382290.394
382222.067
382150.092
382074.48
381995.256
381912.462
381826.155
381736.41
381643.317
381546.991
381447.565
381345.188
381240.027
381132.274
381022.145
380909.883
380795.753
380682.846
380567.027
380451.2
380335.79
380221.255
380108.081
379996.788
379887.924
379782.055
379679.762
379581.662
379488.399
379400.628
379319.005
379244.178
379176.782
379117.589
379065.217
379020.295
378961.124
378933.004
378912.463
378899.091
378892.2
378890.771
378894.554
378909.698
378893.125
382784.819
382774.068
382754.647
382729.182
382699.488
382666.486
382630.527
382591.68
382549.862
382504.953
382477.192
382426.442
382372.289
382314.674
382253.547
382188.877
382120.652
382048.872
381973.554
381894.729
381812.446
381726.767
381637.775
381545.571
381450.274
381352.011
381250.934
381147.214
381041.046
380932.642
380822.24
380712.868
380600.377
380487.619
380374.988
380262.905
380151.817
380042.204
379934.57
379829.44
379727.352
379628.873
379534.604
379445.156
379361.147
379283.192
379211.897
379147.845
379091.756
379042.21
378999.828
378942.966
378916.73
378897.717
378885.514
378879.438
378878.497
378882.496
378897.455
378881.802
382679.56
382668.901
382649.533
382623.994
382594.093
382560.793
382544.297
382505.772
382464.274
382419.722
382372.022
382321.075
382266.805
382209.154
382148.077
382083.55
382015.562
381944.121
381869.248
381790.983
381709.382
381624.519
381536.484
381445.379
381351.325
381254.462
381154.954
381052.98
380948.745
380842.474
380734.415
380627.682
380517.966
380408.178
380298.692
380189.912
380082.269
379976.224
379872.255
379770.856
379672.548
379577.885
379487.436
379401.78
379321.498
379247.167
379179.351
379118.594
379065.576
379018.853
378979.019
378924.466
378900.12
378882.643
378871.614
378866.36
378865.916
378870.142
378884.923
378870.207
382589.04
382578.621
382559.587
382534.358
382504.713
382471.644
382435.584
382396.641
382354.799
382309.98
382262.089
382211.037
382156.751
382099.171
382038.258
381973.99
381906.361
381835.384
381761.085
381683.515
381602.733
381518.813
381431.845
381341.94
381249.224
381153.843
381055.959
380955.755
380853.434
380749.219
380646.181
380539.965
380433.443
380326.968
380220.912
380115.675
380011.68
379909.369
379809.197
379711.646
379617.229
379526.475
379439.925
379358.124
379281.619
379210.947
379146.63
379089.165
379039.191
378995.246
378957.904
378905.597
378883.082
378867.086
378857.184
378852.714
378852.741
378857.179
378871.779
378858.009
382475.62
382465.199
382446.096
382420.7
382390.807
382357.447
382321.094
382281.899
382239.86
382194.909
382146.961
382095.933
382041.753
381984.369
381923.745
381859.863
381792.726
381722.351
381648.77
381572.029
381492.194
381409.345
381323.578
381235.008
381143.764
381049.994
380953.865
380855.559
380755.28
380656.072
380553.528
380450.492
380347.286
380244.254
380141.764
380040.206
379939.988
379841.53
379745.281
379651.72
379561.343
379474.66
379392.189
379314.455
379241.981
379175.286
379114.874
379061.397
379013.575
378971.985
378936.803
378886.487
378865.592
378850.912
378842.011
378838.229
378838.66
378843.267
378857.67
378844.848
382355.388
382345.063
382326.051
382300.666
382270.698
382237.21
382200.715
382161.398
382119.282
382074.316
382026.424
381975.532
381921.575
381864.509
381804.304
381740.944
381674.433
381604.792
381532.057
381456.282
381377.536
381295.904
381211.485
381124.398
381034.775
380942.765
380848.537
380752.274
380657.006
380558.261
380458.863
380359.108
380259.311
380159.81
380060.963
379963.143
379866.734
379772.155
379679.847
379590.271
379503.897
379421.208
379342.694
379268.849
379200.16
379137.107
379080.152
379029.905
378985.052
378946.163
378913.394
378865.215
378846.077
378832.811
378824.981
378821.941
378822.814
378827.623
378841.834
378830.007
382228.457
382218.291
382199.476
382174.229
382144.314
382110.817
382074.291
382034.959
381992.871
381947.994
381900.268
381849.626
381796.012
381739.383
381679.714
381616.997
381551.239
381482.466
381410.719
381336.055
381258.546
381178.281
381095.363
381009.912
380922.063
380831.966
380739.791
380648.56
380553.726
380458.101
380361.958
380265.586
380169.293
380073.412
379978.293
379884.252
379791.704
379701.055
379612.728
379527.158
379444.795
379366.094
379291.519
379221.529
379156.581
379097.12
379043.572
378996.516
378954.617
378918.423
378888.062
378841.985
378824.596
378812.737
378805.974
378803.672
378804.989
378810.004
378824.021
378813.233
382094.682
382084.721
382066.187
382041.184
382011.434
381978.04
381941.593
381902.351
381860.393
381815.708
381768.25
381717.963
381664.8
381608.724
381549.715
381487.769
381422.9
381355.134
381284.518
381211.112
381134.992
381056.248
380974.987
380891.329
380805.411
380717.386
380630.284
380539.463
380447.738
380355.36
380262.592
380169.718
380077.034
379984.851
379893.5
379803.339
379714.744
379628.107
379543.83
379462.329
379384.029
379309.359
379238.754
379172.643
379111.447
379055.576
379005.416
378961.512
378922.514
378888.952
378860.933
378816.871
378801.169
378790.662
378784.918
378783.32
378785.054
378790.262
378804.072
378794.36
381953.796
381944.08
381925.9
381901.237
381871.759
381838.577
381802.314
381763.265
381721.539
381677.149
381630.065
381580.243
381527.646
381472.242
381414.018
381352.975
381289.128
381222.511
381153.171
381081.172
381006.592
380929.524
380850.076
380768.37
380684.544
380601.647
380514.927
380427.211
380338.73
380249.725
380160.455
380071.19
379982.208
379893.828
379806.381
379720.213
379635.685
379553.173
379473.065
379395.757
379321.657
379251.174
379184.721
379122.708
379065.537
379013.599
378967.443
378925.861
378889.378
378858.138
378832.209
378789.943
378775.759
378766.469
378761.64
378760.667
378762.763
378768.125
378781.701
378773.102
381805.446
381796.008
381778.248
381754.018
381724.917
381692.055
381656.084
381617.334
381575.946
381531.955
381485.352
381436.105
381384.187
381329.574
381272.258
381212.245
381149.556
381084.225
381016.304
380945.859
380872.971
380797.733
380720.254
380640.658
380562.027
380479.474
380395.854
380311.376
380226.263
380140.751
380055.059
379969.477
379884.291
379799.804
379716.335
379634.214
379553.79
379475.417
379399.466
379326.31
379256.332
379189.916
379127.446
379069.299
379015.845
378967.437
378924.592
378886.072
378852.399
378823.696
378800.015
378759.607
378747.025
378739.01
378735.138
378734.824
378737.306
378742.844
378756.185
378748.764
381649.203
381640.074
381622.795
381599.082
381570.461
381538.027
381502.454
381464.107
381423.157
381379.667
381333.644
381285.075
381233.939
381180.224
381123.927
381065.06
381003.646
380939.726
380873.355
380804.602
380733.551
380660.3
380584.963
380510.659
380432.347
380352.915
380272.554
380191.458
380109.824
380027.896
379945.919
379864.157
379782.887
379702.402
379623.007
379545.02
379468.77
379394.598
379322.849
379253.878
379188.042
379125.699
379067.204
379012.904
378963.136
378918.22
378878.644
378843.152
378812.253
378786.052
378764.581
378725.954
378714.937
378708.168
378705.228
378705.554
378708.411
378714.123
378727.218
378721.038
381484.583
381475.788
381459.041
381435.925
381407.878
381375.973
381340.899
381303.05
381262.63
381219.725
381174.364
381126.548
381076.267
381023.517
380968.299
380910.63
380850.536
380788.059
380723.253
380656.188
380586.947
380518.649
380446.137
380372.285
380297.247
380221.189
380144.296
380066.77
379988.823
379910.686
379832.6
379754.823
379677.623
379601.283
379526.098
379452.373
379380.424
379310.574
379243.156
379178.505
379116.96
379058.86
379004.541
378954.333
378908.555
378867.694
378830.609
378797.8
378769.393
378745.461
378726.009
378688.968
378679.386
378673.756
378671.664
378672.569
378675.755
378681.618
378694.449
378689.566
381311.033
381302.597
381286.437
381263.999
381236.627
381205.36
381170.896
381133.655
381093.868
381051.649
381007.047
380960.078
380910.745
380859.051
380805.004
380748.624
380689.94
380628.994
380565.846
380503.645
380437.068
380369.005
380299.575
380228.922
380157.203
380084.586
380011.253
379937.4
379863.235
379788.981
379714.873
379641.157
379568.095
379495.955
379425.019
379355.578
379287.931
379222.382
379159.243
379098.827
379041.45
378987.425
378937.06
378890.656
378848.5
378811.05
378777.14
378747.266
378721.539
378700.012
378682.678
378647.228
378639.131
378634.676
378633.459
378634.963
378638.497
378644.528
378657.088
378653.589
381127.818
381119.768
381104.252
381082.579
381055.992
381025.487
380991.761
380955.253
380916.223
380874.811
380831.087
380785.083
380736.816
380686.296
380633.539
380578.567
380521.417
380465.308
380404.686
380342.491
380278.821
380213.793
380147.533
380080.18
380011.884
379942.812
379873.14
379803.059
379732.771
379662.492
379592.446
379522.872
379454.018
379386.142
379319.509
379254.396
379191.083
379129.857
379071.007
379014.827
378961.607
378911.634
378865.19
378822.546
378783.963
378749.873
378719.093
378692.109
378669.015
378649.847
378634.584
378600.622
378593.97
378590.656
378590.286
378592.367
378596.236
378602.43
378614.678
378612.652
380933.857
380926.216
380911.395
380890.569
380864.874
380835.255
380802.397
380766.757
380728.618
380688.146
380645.436
380600.55
380553.52
380504.338
380453.041
380402.959
380348.254
380291.949
380234.113
380174.838
380114.223
380052.379
379989.429
379925.51
379860.771
379795.372
379729.486
379663.298
379597.003
379530.809
379464.933
379399.603
379335.055
379271.536
379209.3
379148.606
379089.721
379032.915
378978.462
378926.636
378877.711
378831.956
378789.635
378751.005
378716.494
378685.012
378657.034
378632.665
378611.969
378594.963
378581.604
378571.785
378543.639
378541.366
378541.767
378544.369
378548.532
378554.857
378566.628
378566.173
380727.727
380720.487
380706.353
380686.378
380661.592
380632.883
380600.95
380566.238
380529.032
380489.505
380447.752
380407.336
380362.063
380315.074
380266.411
380216.117
380164.248
380110.877
380056.085
379999.963
379942.61
379884.14
379824.676
379764.353
379703.319
379641.73
379579.755
379517.572
379455.371
379393.351
379331.719
379270.693
379210.497
379151.365
379093.535
379037.25
378982.761
378930.317
378880.171
378832.576
378787.781
378746.028
378707.556
378672.59
378641.533
378613.273
378588.285
378566.663
378548.457
378533.668
378522.247
378514.079
378486.843
378485.616
378486.793
378489.917
378494.367
378500.829
378512.108
378513.332
380508.526
380501.647
380488.123
380468.875
380444.812
380420.558
380389.945
380356.792
380321.402
380283.983
380244.679
380203.585
380160.769
380116.306
380070.256
380022.682
379973.65
379923.232
379871.511
379818.578
379764.533
379709.489
379653.567
379596.901
379539.632
379481.914
379423.91
379365.791
379307.739
379249.945
379192.607
379135.931
379080.13
379025.425
378972.041
378920.208
378870.157
378822.126
378776.35
378733.065
378692.501
378654.888
378620.445
378589.57
378561.223
378535.872
378513.614
378494.517
378478.61
378465.877
378456.254
378449.618
378423.11
378422.844
378424.732
378428.326
378433.028
378439.606
378450.36
378453.373
380280.666
380274.866
380263.331
380246.738
380225.218
380199.672
380171.045
380139.825
380106.365
380070.909
380033.632
379994.656
379954.075
379911.965
379868.392
379823.424
379777.128
379729.58
379680.862
379631.064
379580.285
379528.634
379476.229
379423.198
379369.68
379315.819
379261.771
379207.701
379153.779
379100.187
379047.111
378994.746
378943.29
378892.949
378843.932
378796.452
378750.723
378706.96
378665.38
378626.193
378589.609
378555.829
378525.049
378497.642
378472.546
378450.23
378430.779
378414.247
378400.651
378389.965
378382.117
378376.978
378374.361
378351.742
378354.3
378358.33
378363.251
378369.927
378380.117
378385.048
380031.394
380026.006
380015.217
379999.647
379979.92
379956.645
379930.358
379901.491
379870.379
379837.276
379802.372
379765.814
379727.718
379688.185
379647.306
379605.17
379561.868
379517.493
379472.149
379425.944
379378.995
379331.429
379283.38
379234.994
379186.423
379137.828
379089.378
379041.253
378993.131
378943.718
378894.883
378846.806
378799.674
378753.679
378709.014
378665.877
378624.467
378584.984
378547.625
378512.587
378480.061
378450.234
378423.472
378398.773
378376.593
378357.02
378340.117
378325.915
378314.413
378305.571
378299.304
378295.478
378293.901
378294.325
378274.344
378278.609
378283.534
378290.072
378299.4
378311.609
379774.523
379769.576
379759.594
379745.131
379726.737
379704.962
379680.302
379653.173
379623.908
379592.764
379559.942
379525.598
379489.859
379452.833
379414.617
379375.302
379334.981
379293.749
379251.704
379208.952
379165.607
379121.787
379077.622
379033.248
378988.808
378944.452
378900.34
378856.637
378813.514
378771.15
378729.727
378689.432
378648.21
378606.461
378566.032
378527.105
378489.858
378454.471
378421.121
378389.983
378361.223
378335.007
378311.679
378290.215
378271.072
378254.328
378240.032
378228.202
378218.829
378211.863
378207.213
378204.745
378204.269
378205.552
378208.316
378189.949
378195.055
378201.683
378210.404
378224.902
379508.013
379503.525
379494.386
379481.089
379464.107
379443.926
379420.999
379395.717
379368.403
379339.316
379308.663
379276.61
379243.292
379208.826
379173.314
379136.854
379099.538
379061.463
379022.725
378983.43
378943.683
378903.6
378863.304
378822.922
378782.588
378742.443
378702.636
378663.321
378624.656
378586.805
378549.938
378514.227
378479.847
378446.975
378414.636
378379.923
378346.856
378315.598
378286.308
378259.145
378234.264
378211.998
378191.37
378172.834
378156.465
378142.317
378130.422
378120.787
378113.385
378108.16
378105.014
378103.808
378104.358
378106.448
378109.802
378114.025
378096.049
378102.768
378110.867
378127.807
379230.535
379226.515
379218.24
379206.148
379190.638
379172.133
379151.035
379127.706
379102.453
379075.531
379047.149
379017.481
378986.668
378954.834
378922.088
378888.53
378854.258
378819.367
378783.955
378748.122
378711.973
378675.616
378639.168
378602.748
378566.482
378530.503
378494.946
378459.955
378425.676
378392.26
378359.861
378328.638
378298.751
378270.36
378243.628
378218.717
378193.673
378166.449
378141.122
378117.836
378096.914
378077.413
378059.784
378044.101
378030.42
378018.781
378009.2
378001.67
377996.156
377992.591
377990.874
377990.863
377992.381
377995.231
377999.135
378003.704
378008.502
378014.771
377998.976
378018.532
378941.032
378937.482
378930.078
378919.211
378905.21
378888.437
378869.243
378847.955
378824.859
378800.2
378774.185
378746.99
378718.761
378689.628
378659.704
378629.094
378597.897
378566.21
378534.13
378501.754
378469.182
378436.52
378403.875
378371.361
378339.093
378307.193
378275.788
378245.007
378214.983
378185.854
378157.759
378130.839
378105.237
378081.097
378058.562
378037.774
378018.872
378001.993
377982.882
377963.114
377945.568
377929.277
377914.694
377901.884
377890.891
377881.741
377874.443
377868.978
377865.304
377863.35
377863.012
377864.151
377866.598
377870.174
377874.598
377879.489
377884.45
377890.824
377897.178
377918.574
378638.474
378635.39
378628.853
378619.212
378606.738
378591.731
378574.493
378555.313
378534.452
378512.139
378488.576
378463.934
378438.364
378411.997
378384.95
378357.332
378329.243
378300.78
378272.041
378243.119
378214.112
378185.121
378156.248
378127.596
378099.276
378071.399
378044.081
378017.44
377991.598
377966.679
377942.809
377920.115
377898.725
377878.768
377860.372
377843.662
377828.761
377815.79
377804.867
377795.951
377781.408
377768.006
377756.182
377745.981
377737.434
377730.553
377725.335
377721.751
377719.751
377719.258
377720.166
377722.34
377725.633
377729.855
377734.719
377739.879
377744.967
377751.407
377757.107
377781.49
378321.711
378319.085
378313.398
378304.97
378294.018
378280.787
378265.532
378248.502
378229.929
378210.024
378188.978
378166.953
378144.099
378120.549
378096.421
378071.825
378046.861
378021.629
377996.223
377970.736
377945.263
377919.898
377894.739
377869.883
377845.431
377821.486
377798.154
377775.543
377753.762
377732.924
377713.141
377694.527
377677.194
377661.258
377646.83
377634.02
377622.936
377613.684
377606.219
377600.18
377601.922
377590.883
377581.673
377573.935
377567.687
377562.931
377559.651
377557.812
377557.358
377558.208
377560.254
377563.367
377567.424
377572.224
377577.468
377582.851
377588.032
377594.512
377599.534
377627.097
377964.002
377961.876
377957.122
377950.03
377940.762
377929.507
377916.469
377901.854
377885.859
377868.673
377873.83
377854.46
377834.36
377813.657
377792.469
377770.905
377749.067
377727.053
377704.953
377682.859
377660.865
377639.059
377617.531
377596.375
377575.683
377555.55
377536.071
377517.345
377499.47
377482.547
377466.674
377451.952
377438.482
377426.363
377415.692
377406.565
377399.076
377393.173
377388.511
377385.228
377383.366
377396.533
377389.252
377383.501
377379.402
377376.624
377375.142
377374.915
377375.88
377377.956
377381.036
377385.012
377389.755
377395.048
377400.614
377406.177
377411.418
377417.92
377422.239
377453.178
377611.737
377610.036
377606.069
377600.114
377592.295
377582.762
377571.677
377559.21
377545.529
377530.797
377515.17
377498.786
377481.782
377464.28
377446.397
377428.239
377409.905
377415.076
377396.235
377377.476
377358.886
377340.549
377322.552
377304.98
377287.917
377271.452
377255.671
377240.661
377226.512
377213.311
377201.146
377190.106
377180.277
377171.746
377164.596
377158.911
377154.254
377150.836
377148.69
377147.856
377148.368
377175.32
377171.159
377168.841
377168.421
377169.244
377169.409
377170.65
377172.901
377176.079
377180.086
377184.837
377190.186