/*--------------------------------*- C++ -*----------------------------------*\
  =========                 |
  \\      /  F ield         | OpenFOAM: The Open Source CFD Toolbox
   \\    /   O peration     | Website:  https://openfoam.org
    \\  /    A nd           | Version:  11
     \\/     M anipulation  |
\*---------------------------------------------------------------------------*/
FoamFile
{
    format      ascii;
    class       volScalarField;
    location    "1.99414e-05";
    object      p;
}
// * * * * * * * * * * * * * * * * * * * * * * * * * * * * * * * * * * * * * //

dimensions      [1 -1 -2 0 0 0 0];

internalField   uniform 517965;

boundaryField
{
    axis
    {
        type            symmetry;
    }
    inlet
    {
        type            calculated;
        value           uniform 6098795.03;
    }
    outlet
    {
        type            calculated;
        value           uniform 5000000;
    }
    wall
    {
        type            calculated;
        value           uniform 517965;
    }
    front
    {
        type            calculated;
        value           uniform 517965;
    }
    back
    {
        type            calculated;
        value           uniform 517965;
    }
}


// ************************************************************************* //
