/*--------------------------------*- C++ -*----------------------------------*\
  =========                 |
  \\      /  F ield         | OpenFOAM: The Open Source CFD Toolbox
   \\    /   O peration     | Website:  https://openfoam.org
    \\  /    A nd           | Version:  11
     \\/     M anipulation  |
\*---------------------------------------------------------------------------*/
FoamFile
{
    format      ascii;
    class       volScalarField;
    location    "1.99414e-05";
    object      rho.gas;
}
// * * * * * * * * * * * * * * * * * * * * * * * * * * * * * * * * * * * * * //

dimensions      [1 -3 0 0 0 0 0];

internalField   nonuniform List<scalar> 
120000
(
-1015.43267
-1015.42363
-1015.40554
-1015.37842
-1015.34225
-1015.29703
-1015.24275
-1015.17942
-1015.10704
-1015.02561
-1014.93515
-1014.83568
-1014.72725
-1014.60991
-1014.48373
-1014.34883
-1014.20532
-1014.05337
-1013.8932
-1013.72506
-1013.54924
-1013.36613
-1013.17615
-1012.97982
-1012.77774
-1012.5706
-1012.3592
-1012.14443
-1011.92733
-1011.70905
-1011.49091
-1011.27434
-1011.06096
-1010.85256
-1010.65108
-1010.45869
-1010.27773
-1010.11074
-1009.96047
-1009.82988
-1009.72214
-1009.64064
-1009.58893
-1009.57073
-1009.58989
-1009.65027
-1009.75563
-1009.90939
-1010.11436
-1010.37216
-1010.68257
-1011.04275
-1011.4459
-1011.87957
-1012.324
-1012.75085
-1013.12356
-1013.3936
-1013.89056
-1014.20154
-1012.53837
-1012.52244
-1012.49067
-1012.44311
-1012.37989
-1012.30118
-1012.20719
-1012.09819
-1011.97449
-1011.83648
-1011.68461
-1011.51939
-1011.34141
-1011.15136
-1010.95002
-1010.73826
-1010.51711
-1010.28767
-1010.05121
-1009.80915
-1009.56305
-1009.31468
-1009.06595
-1008.819
-1008.57614
-1008.33991
-1008.11306
-1007.89856
-1007.69961
-1007.51959
-1007.3621
-1007.23093
-1007.13003
-1007.06346
-1007.03535
-1007.04989
-1007.11119
-1007.22324
-1007.38975
-1007.61405
-1007.89889
-1008.24631
-1008.65728
-1009.13161
-1009.66762
-1010.2617
-1010.90793
-1011.59779
-1012.31969
-1013.05856
-1013.79561
-1014.50832
-1015.17064
-1015.75331
-1016.22524
-1016.5564
-1016.7083
-1016.72049
-1016.73095
-1016.84766
-1009.82796
-1009.80665
-1009.76415
-1009.70059
-1009.6162
-1009.51128
-1009.38624
-1009.24158
-1009.07789
-1008.89591
-1008.69647
-1008.48055
-1008.24925
-1008.00385
-1007.74576
-1007.47659
-1007.19812
-1006.91234
-1006.62145
-1006.32786
-1006.03422
-1005.74345
-1005.45869
-1005.18337
-1004.92117
-1004.67604
-1004.4522
-1004.25409
-1004.08644
-1003.95414
-1003.86228
-1003.81608
-1003.82082
-1003.88173
-1004.00395
-1004.19247
-1004.45195
-1004.78649
-1005.19951
-1005.69351
-1006.26983
-1006.92836
-1007.66725
-1008.48255
-1009.36782
-1010.31385
-1011.30814
-1012.33473
-1013.37385
-1014.40101
-1015.38896
-1016.30817
-1017.12741
-1017.81501
-1018.32904
-1018.71891
-1018.96618
-1019.01856
-1019.11488
-1019.37842
-1007.20157
-1007.17635
-1007.12607
-1007.05082
-1006.95082
-1006.82643
-1006.67811
-1006.5065
-1006.31239
-1006.09677
-1005.86078
-1005.60577
-1005.3333
-1005.04511
-1004.74317
-1004.42968
-1004.10706
-1003.778
-1003.44543
-1003.11256
-1002.78286
-1002.46012
-1002.14838
-1001.85201
-1001.57564
-1001.32419
-1001.10283
-1000.91697
-1000.77228
-1000.67464
-1000.63003
-1000.6445
-1000.72407
-1000.87468
-1001.10203
-1001.4115
-1001.80794
-1002.29549
-1002.87732
-1003.55548
-1004.33054
-1005.20134
-1006.16455
-1007.21459
-1008.34303
-1009.53842
-1010.78756
-1012.07565
-1013.31894
-1014.56849
-1015.73441
-1016.78614
-1017.68911
-1018.46993
-1019.08053
-1019.56352
-1019.90845
-1020.03011
-1020.23473
-1020.5866
-1004.61803
-1004.59068
-1004.53603
-1004.45397
-1004.3445
-1004.20777
-1004.04414
-1003.85423
-1003.63891
-1003.39933
-1003.13688
-1002.85321
-1002.55023
-1002.23009
-1001.8952
-1001.54824
-1001.19213
-1000.83009
-1000.46561
-1000.10245
-999.744658
-999.396595
-999.062963
-998.748738
-998.459178
-998.19982
-997.976456
-997.795112
-997.662023
-997.583584
-997.566295
-997.616698
-997.741279
-997.946398
-998.238217
-998.622542
-999.104659
-999.689297
-1000.38065
-1001.18156
-1002.09322
-1003.11496
-1004.24425
-1005.47627
-1006.73823
-1008.09523
-1009.47124
-1010.84851
-1012.20397
-1013.50929
-1014.73353
-1015.84316
-1016.79908
-1017.62968
-1018.30591
-1018.87355
-1019.24193
-1019.44183
-1019.6899
-1020.03174
-1002.06964
-1002.0422
-1001.98709
-1001.90358
-1001.79104
-1001.64911
-1001.47782
-1001.27762
-1001.04941
-1000.79444
-1000.51433
-1000.211
-999.886657
-999.543784
-999.185135
-998.813762
-998.43298
-998.046381
-997.65784
-997.271521
-996.891878
-996.523658
-996.171902
-995.84193
-995.539334
-995.269963
-995.039906
-994.855448
-994.723031
-994.64924
-994.64073
-994.704054
-994.845629
-995.071871
-995.389107
-995.802738
-996.317049
-996.65003
-997.388959
-998.258108
-999.258782
-1000.3917
-1001.89164
-1003.20551
-1004.56342
-1005.95298
-1007.35803
-1008.75877
-1010.13159
-1011.44917
-1012.68081
-1013.78918
-1014.79845
-1015.67822
-1016.40537
-1016.96378
-1017.34795
-1017.60032
-1017.86067
-1018.13374
-999.571946
-999.546779
-999.495456
-999.416027
-999.30669
-999.166202
-998.994081
-998.790589
-998.556629
-998.293618
-998.003395
-997.688149
-997.350376
-996.992854
-996.618633
-996.231031
-995.833632
-995.430287
-995.025118
-994.622521
-994.227163
-993.843979
-993.478174
-993.135197
-992.820731
-992.540692
-992.301201
-992.108328
-991.968292
-991.88748
-991.87235
-991.929349
-992.064194
-991.997285
-992.313222
-992.742733
-993.290763
-993.962305
-994.762398
-995.69537
-996.729534
-997.876215
-999.100544
-1000.39458
-1001.7486
-1003.43624
-1004.84114
-1006.23661
-1007.60015
-1008.90542
-1010.12279
-1011.21681
-1012.21408
-1013.08371
-1013.80356
-1014.35848
-1014.74353
-1014.94339
-1015.27808
-1015.46024
-997.147697
-997.127257
-997.08401
-997.013921
-996.913385
-996.780006
-996.612759
-996.411784
-996.178094
-995.91333
-995.619594
-995.299346
-994.955347
-994.59062
-994.208442
-993.812338
-993.406075
-992.99367
-992.579384
-992.167726
-991.76344
-991.371513
-990.997182
-990.645755
-990.322647
-990.033543
-989.784288
-989.580818
-989.429124
-989.335196
-989.024414
-989.070816
-989.211554
-989.452714
-989.80087
-990.262208
-990.842446
-991.546824
-992.380129
-993.310803
-994.352604
-995.471073
-996.661454
-997.916288
-999.225165
-1000.57454
-1001.94756
-1003.32474
-1004.96044
-1006.241
-1007.42851
-1008.49026
-1009.45444
-1010.29107
-1010.97922
-1011.50477
-1011.86338
-1012.04022
-1012.37769
-1012.47794
-994.816374
-994.803032
-994.771756
-994.715466
-994.628226
-994.50639
-994.348504
-994.15473
-993.926308
-993.66517
-993.373711
-993.054664
-992.711028
-992.346038
-991.963157
-991.566061
-991.158645
-990.745031
-990.329581
-989.916873
-989.511404
-989.118112
-988.742096
-988.388612
-988.063041
-987.77087
-987.517634
-987.308861
-986.870661
-986.775164
-986.760816
-986.834297
-987.002217
-987.27109
-987.647249
-988.136708
-988.745135
-989.477874
-990.304128
-991.240296
-992.253331
-993.340085
-994.495109
-995.710353
-996.97499
-998.275268
-999.594438
-1000.91276
-1002.20721
-1003.7308
-1004.85516
-1005.89905
-1006.83472
-1007.64007
-1008.29683
-1008.79297
-1009.12559
-1009.28012
-1009.61259
-1009.64447
-992.589499
-992.585216
-992.568937
-992.52968
-992.458888
-992.351751
-992.206571
-992.023689
-991.80466
-991.551749
-991.267649
-990.955345
-990.618053
-990.259191
-989.882405
-989.491476
-989.09024
-988.682876
-988.273737
-987.867369
-987.468499
-987.082045
-986.713101
-986.366929
-986.04894
-985.764683
-985.519838
-985.033816
-984.891157
-984.824133
-984.839004
-984.942156
-985.140029
-985.439032
-985.845434
-986.365381
-987.004972
-987.734921
-988.57352
-989.488741
-990.478538
-991.538987
-992.663965
-993.844947
-995.070838
-996.327857
-997.599517
-998.866532
-1000.10639
-1001.29374
-1002.67363
-1003.67998
-1004.57918
-1005.35098
-1005.97925
-1006.45418
-1006.77501
-1006.92892
-1007.20943
-1007.24619
-990.469681
-990.475736
-990.476284
-990.455917
-990.403424
-990.313025
-990.182955
-990.013834
-989.807574
-989.56685
-989.294517
-988.993754
-988.667957
-988.320659
-987.955539
-987.57643
-987.187321
-986.792367
-986.395887
-986.002353
-985.616389
-985.242746
-984.886288
-984.551954
-984.244721
-983.689933
-983.458649
-983.288629
-983.186176
-983.157624
-983.209299
-983.347479
-983.578318
-983.907728
-984.341328
-984.884508
-985.542256
-986.282552
-987.124904
-988.037456
-989.018707
-990.06498
-991.170303
-992.3263
-993.522105
-994.744349
-995.977148
-997.201737
-998.396532
-999.537515
-1000.88227
-1001.84405
-1002.7006
-1003.43278
-1004.02555
-1004.4701
-1004.76629
-1004.90065
-1005.16849
-1005.16358
-988.451728
-988.468591
-988.486558
-988.485696
-988.45232
-988.379878
-988.266643
-988.113535
-987.922794
-987.697297
-987.440235
-987.154984
-986.845053
-986.514069
-986.165784
-985.80408
-985.432979
-985.056649
-984.679411
-984.305736
-983.940249
-983.58772
-983.253068
-982.941349
-982.374745
-982.129611
-981.940681
-981.813729
-981.754708
-981.769682
-981.864774
-982.046097
-982.319645
-982.691242
-983.166637
-983.751409
-984.415065
-985.179881
-986.014424
-986.917773
-987.887338
-988.9186
-990.004962
-991.137625
-992.305519
-993.495285
-994.691103
-995.874352
-997.023889
-998.116323
-999.124113
-1000.34341
-1001.16467
-1001.86272
-1002.42411
-1002.84132
-1003.1151
-1003.23183
-1003.48673
-1003.45066
-986.524415
-986.551777
-986.586667
-986.604929
-986.590694
-986.53678
-986.441521
-986.306106
-986.133055
-985.925481
-985.686758
-985.420395
-985.129985
-984.819204
-984.491812
-984.151667
-983.802729
-983.449064
-983.094843
-982.744333
-982.401886
-982.071919
-981.484062
-981.1984
-980.95644
-980.763961
-980.626857
-980.551122
-980.542833
-980.608127
-980.753164
-980.984064
-981.306865
-981.727656
-982.252565
-982.852538
-983.551312
-984.318373
-985.153414
-986.054763
-987.019107
-988.041351
-989.114467
-990.2294
-991.37505
-992.53823
-993.703211
-994.851848
-995.963845
-997.016962
-997.985382
-999.170696
-999.955501
-1000.61985
-1001.15124
-1001.54308
-1001.79676
-1001.89844
-1002.14124
-1002.08198
-984.672747
-984.709712
-984.760282
-984.79669
-984.801207
-984.766096
-984.689715
-984.573448
-984.42003
-984.232756
-984.015147
-983.770813
-983.50342
-983.216688
-982.914397
-982.600402
-982.278642
-981.953145
-981.628023
-981.307472
-980.995752
-980.420371
-980.145127
-979.909258
-979.718001
-979.576772
-979.491133
-979.466751
-979.509355
-979.624691
-979.818427
-980.096087
-980.463134
-980.924929
-981.486419
-982.116267
-982.839373
-983.625247
-984.473895
-985.383665
-986.351159
-987.371135
-988.43642
-989.537868
-990.66435
-991.802473
-992.936326
-994.047694
-995.11619
-996.117282
-997.071294
-998.235042
-998.994633
-999.63391
-1000.14212
-1000.51406
-1000.75214
-1000.84257
-1001.075
-1000.9989
-982.879579
-982.924895
-982.989475
-983.0427
-983.065296
-983.048985
-982.992055
-982.89599
-982.763657
-982.598473
-982.404056
-982.184085
-981.942276
-981.682376
-981.40818
-981.123549
-980.832426
-980.53885
-980.246963
-979.961022
-979.406199
-979.149822
-978.928518
-978.747213
-978.61103
-978.525257
-978.495318
-978.526743
-978.62513
-978.796076
-979.045151
-979.377996
-979.800327
-980.317716
-980.900464
-981.575415
-982.312007
-983.110294
-983.969172
-984.886129
-985.857107
-986.87638
-987.936464
-989.028095
-990.140343
-991.259726
-992.370692
-993.455697
-994.495292
-995.466267
-996.389851
-997.523956
-998.254103
-998.866189
-999.350514
-999.702801
-999.926056
-1000.00641
-1000.2295
-1000.14043
-981.126875
-981.179158
-981.255909
-981.324465
-981.364288
-981.36653
-981.329296
-981.254051
-981.143696
-981.001687
-980.831657
-980.637282
-980.422232
-980.190177
-979.944788
-979.689754
-979.428778
-979.165578
-978.631237
-978.380127
-978.153992
-977.957624
-977.795931
-977.673938
-977.596773
-977.569652
-977.597856
-977.686688
-977.841411
-978.06722
-978.369323
-978.752862
-979.222723
-979.783479
-980.403387
-981.110574
-981.874434
-982.695286
-983.572036
-984.502097
-985.481317
-986.503911
-987.562464
-988.647903
-989.749135
-990.852971
-991.944305
-993.006193
-994.019947
-994.963242
-995.857761
-996.962715
-997.664842
-998.251299
-998.713391
-999.047683
-999.257709
-999.3295
-999.544301
-999.444967
-979.396565
-979.454465
-979.541599
-979.62404
-979.680253
-979.7008
-979.683508
-979.629732
-979.542352
-979.424832
-979.280825
-979.114024
-978.92812
-978.726798
-978.513756
-978.292721
-978.067467
-977.565748
-977.347959
-977.15235
-976.9832
-976.844986
-976.742357
-976.680118
-976.663198
-976.696632
-976.785519
-976.934961
-977.150096
-977.43617
-977.798441
-978.242088
-978.772215
-979.358472
-980.030795
-980.75845
-981.541724
-982.379923
-983.271154
-984.212208
-985.19847
-986.223877
-987.280909
-988.360397
-989.451169
-990.540248
-991.612939
-992.652859
-993.642055
-994.559062
-995.426007
-996.502782
-997.178574
-997.741134
-998.182715
-998.500652
-998.698938
-998.763479
-998.970789
-998.863071
-977.669457
-977.731696
-977.827454
-977.922235
-977.99375
-978.031949
-978.034268
-978.001846
-977.937442
-977.844442
-977.726434
-977.587035
-977.429839
-977.258408
-977.076274
-976.614556
-976.42591
-976.25122
-976.094603
-975.960293
-975.852653
-975.77617
-975.735439
-975.735154
-975.780083
-975.875022
-976.024738
-976.234036
-976.507792
-976.850771
-977.267583
-977.762665
-978.340203
-978.967899
-979.677083
-980.436849
-981.247711
-982.108967
-983.01864
-983.973409
-984.968557
-985.997962
-987.054442
-988.128495
-989.209107
-990.283651
-991.337911
-992.35616
-993.321306
-994.213056
-995.054074
-996.104129
-996.755708
-997.296495
-997.719589
-998.023016
-998.211163
-998.26977
-998.470306
-998.355627
-975.925192
-975.990601
-976.093313
-976.198873
-976.28449
-976.339509
-976.360909
-976.349544
-976.308007
-976.239588
-976.147827
-976.036295
-975.908391
-975.496851
-975.350341
-975.210928
-975.082404
-974.968667
-974.873754
-974.801835
-974.757205
-974.744268
-974.767529
-974.831568
-974.940994
-975.100443
-975.314641
-975.588368
-975.926336
-976.333177
-976.813434
-977.371508
-977.975922
-978.659949
-979.392708
-980.174762
-981.00577
-981.884313
-982.807804
-983.77244
-984.773204
-985.803842
-986.856415
-987.921334
-988.987461
-990.042088
-991.07094
-992.058229
-992.984636
-993.869881
-994.695525
-995.726216
-996.359675
-996.883383
-997.291632
-997.58338
-997.76356
-997.817851
-998.012403
-997.891975
-974.139948
-974.207384
-974.315287
-974.429751
-974.527714
-974.597929
-974.636868
-974.644948
-974.624497
-974.578307
-974.244614
-974.160115
-974.072084
-973.983819
-973.899101
-973.821733
-973.755608
-973.704713
-973.673129
-973.665036
-973.684704
-973.736493
-973.824816
-973.954109
-974.128904
-974.353873
-974.633668
-974.972939
-975.376337
-975.848502
-976.394033
-976.982101
-977.647173
-978.358695
-979.117396
-979.923267
-980.775378
-981.671798
-982.609536
-983.584534
-984.591639
-985.624273
-986.674345
-987.732352
-988.787384
-989.827111
-990.837818
-991.80449
-992.708835
-993.571263
-994.373324
-995.379294
-995.990828
-996.495002
-996.886904
-997.166115
-997.33789
-997.387676
-997.576469
-997.450533
-972.286666
-972.35483
-972.465858
-972.586849
-972.694455
-972.776358
-972.570421
-972.594514
-972.601922
-972.595136
-972.57733
-972.552255
-972.523632
-972.495231
-972.470869
-972.454411
-972.449777
-972.460949
-972.491972
-972.546952
-972.630039
-972.745395
-972.897251
-973.089936
-973.327771
-973.615048
-973.956021
-974.354887
-974.815748
-975.342579
-975.939167
-976.572814
-977.279562
-978.028433
-978.820334
-979.65524
-980.532142
-981.449014
-982.402828
-983.389548
-984.403867
-985.439063
-986.487118
-987.538721
-988.58324
-989.60874
-990.602025
-991.548729
-992.431289
-993.270464
-994.048587
-995.029824
-995.619513
-996.104403
-996.480324
-996.747416
-996.911189
-996.956797
-997.140168
-997.008821
-970.053983
-970.125829
-970.246387
-970.384808
-970.518863
-970.636884
-970.73477
-970.81303
-970.873956
-970.920799
-970.957221
-970.987036
-971.014107
-971.042305
-971.075512
-971.117621
-971.172549
-971.244246
-971.336682
-971.453834
-971.599749
-971.778575
-971.994453
-972.251525
-972.553939
-972.905833
-973.311315
-973.774451
-974.299243
-974.889577
-975.513201
-976.208033
-976.942928
-977.718752
-978.535703
-979.393149
-980.289588
-981.22265
-982.189086
-983.184527
-984.203328
-985.238679
-986.282613
-987.325957
-988.358337
-989.368214
-990.342935
-991.268844
-992.129295
-992.945488
-993.700328
-994.657757
-995.226637
-995.693317
-996.054294
-996.310205
-996.466766
-996.508771
-996.68705
-996.550399
-968.225606
-968.302237
-968.433246
-968.588231
-968.74471
-968.890379
-969.020425
-969.134414
-969.23418
-969.322648
-969.403235
-969.479566
-969.555344
-969.634304
-969.720196
-969.816782
-969.92782
-970.057101
-970.20849
-970.385887
-970.59321
-970.834399
-971.113413
-971.434224
-971.800799
-972.217097
-972.687047
-973.214532
-973.803345
-974.421266
-975.107665
-975.831599
-976.594107
-977.395632
-978.235878
-979.113774
-980.027483
-980.97439
-981.950829
-982.951989
-983.971998
-985.00391
-986.039641
-987.069951
-988.084445
-989.071588
-990.018737
-990.91007
-991.764392
-992.566221
-993.304273
-994.242777
-994.794741
-995.246239
-995.594631
-995.841186
-995.991904
-996.031253
-996.204896
-996.063148
-966.061042
-966.175459
-966.374205
-966.614946
-966.86548
-967.107447
-967.333086
-967.51248
-967.646161
-967.771666
-967.892184
-968.011149
-968.132092
-968.258567
-968.394159
-968.542505
-968.707247
-968.892043
-969.100577
-969.336559
-969.603723
-969.905826
-970.246636
-970.629929
-971.059476
-971.539032
-972.072326
-972.66301
-973.278736
-973.960356
-974.676978
-975.429774
-976.219393
-977.045826
-977.908382
-978.805713
-979.73579
-980.695566
-981.681014
-982.687179
-983.708137
-984.736954
-985.765658
-986.785231
-987.785628
-988.755802
-989.683772
-990.554557
-991.387505
-992.167151
-992.882833
-993.798966
-994.331277
-994.765753
-995.100368
-995.336814
-995.481228
-995.517607
-995.686731
-995.539496
-963.617536
-963.734614
-963.941007
-964.196336
-964.468979
-964.740154
-965.001347
-965.250484
-965.489054
-965.720385
-965.948721
-966.178721
-966.415217
-966.663111
-966.927339
-967.212855
-967.501206
-967.740197
-968.00456
-968.297827
-968.623548
-968.985286
-969.386613
-969.831103
-970.322322
-970.863819
-971.459086
-972.075498
-972.755466
-973.468002
-974.214358
-974.995333
-975.811143
-976.661352
-977.5449
-978.460693
-979.405837
-980.377028
-981.370094
-982.379993
-983.40077
-984.425541
-985.446471
-986.454775
-987.440737
-988.393751
-989.302381
-990.15224
-990.962945
-991.719668
-992.412491
-993.306358
-993.818971
-994.236532
-994.557566
-994.78414
-994.922467
-994.955999
-995.12083
-994.967705
-961.211987
-961.330916
-961.5435
-961.811574
-962.104379
-962.40287
-962.697836
-962.986485
-963.269714
-963.550389
-963.832375
-964.120014
-964.417869
-964.730599
-965.062899
-965.419486
-965.805089
-966.224449
-966.682325
-967.18349
-967.646471
-968.066653
-968.527252
-969.031637
-969.583166
-970.185153
-970.804557
-971.485446
-972.196581
-972.939251
-973.71435
-974.522264
-975.362887
-976.235611
-977.139147
-978.07141
-979.029604
-980.010202
-981.008897
-982.020569
-983.039263
-984.058165
-985.069599
-986.065039
-987.035141
-987.969775
-988.858114
-989.686512
-990.474948
-991.209077
-991.87962
-992.752225
-993.245979
-993.647476
-993.955738
-994.17315
-994.305973
-994.337042
-994.497874
-994.338493
-958.834868
-958.95503
-959.172654
-959.451965
-959.763302
-960.087531
-960.41482
-960.741661
-961.06832
-961.397155
-961.731618
-962.075716
-962.433719
-962.810019
-963.209059
-963.635304
-964.093231
-964.587325
-965.12208
-965.701997
-966.331585
-967.015359
-967.664219
-968.227039
-968.837307
-969.461409
-970.145214
-970.85708
-971.598296
-972.369806
-973.172118
-974.005316
-974.869101
-975.76229
-976.683159
-977.629362
-978.597878
-979.584977
-980.586187
-981.596263
-982.609169
-983.618052
-984.615236
-985.592235
-986.539766
-987.447782
-988.303312
-989.124351
-989.897883
-990.615087
-991.267773
-992.122782
-992.60051
-992.988206
-993.285488
-993.495098
-993.623474
-993.65283
-993.810127
-993.6442
-956.485096
-956.605984
-956.827652
-957.116826
-957.445147
-957.793571
-958.151733
-958.515426
-958.88427
-959.260077
-959.645856
-960.045244
-960.46219
-960.900796
-961.365229
-961.859685
-962.388373
-962.955503
-963.56529
-964.221952
-964.929708
-965.692777
-966.51538
-967.401693
-968.045298
-968.733357
-969.447453
-970.188854
-970.958515
-971.757043
-972.584975
-973.441731
-974.326472
-975.237803
-976.173763
-977.131792
-978.108696
-979.100622
-980.10303
-981.110675
-982.117581
-983.117039
-984.101616
-985.063165
-985.99285
-986.881205
-987.715967
-988.515564
-989.267015
-989.962028
-990.593059
-991.428403
-991.888232
-992.260871
-992.546358
-992.747647
-992.871251
-992.898631
-993.052536
-992.879394
-954.166893
-954.288096
-954.512956
-954.81076
-955.154636
-955.525807
-955.913487
-956.312815
-956.722757
-957.144558
-957.580753
-958.034579
-958.509636
-959.009706
-959.538654
-960.100374
-960.698766
-961.337719
-962.021106
-962.752774
-963.53654
-964.376168
-965.275389
-966.184035
-967.173786
-967.972434
-968.714276
-969.482603
-970.27829
-971.101448
-971.951877
-972.828921
-973.73144
-974.657788
-975.605779
-976.572666
-977.555112
-978.549168
-979.550252
-980.553137
-981.551936
-982.540103
-983.510448
-984.455158
-985.365832
-986.233531
-987.046605
-987.823793
-988.552507
-989.224998
-989.834313
-990.650657
-991.092894
-991.450866
-991.724974
-991.918335
-992.037496
-992.063072
-992.213834
-992.032828
-951.888471
-952.009689
-952.237084
-952.542521
-952.900774
-953.293529
-953.709718
-954.143904
-954.594436
-955.062011
-955.548705
-956.057377
-956.591316
-957.15404
-957.749182
-958.380436
-959.051519
-959.76616
-960.52809
-961.341031
-962.208708
-963.080619
-964.031432
-965.01452
-966.031653
-967.084401
-967.956182
-968.7455
-969.561334
-970.403465
-971.271278
-972.163742
-973.079381
-974.016242
-974.971877
-975.94331
-976.927014
-977.918891
-978.914254
-979.907809
-980.893643
-981.865226
-982.815417
-983.736482
-984.620115
-985.455247
-986.258939
-987.019738
-987.730368
-988.383996
-988.974516
-989.774649
-990.201262
-990.54617
-990.810198
-990.99665
-991.112144
-991.13638
-991.284311
-991.094891
-949.661483
-949.7824
-950.011626
-950.323595
-950.694866
-951.10777
-951.551106
-952.018943
-952.509051
-953.02158
-953.558142
-954.12121
-954.713755
-955.339027
-956.000434
-956.701469
-957.445671
-958.236601
-959.077831
-959.917785
-960.834604
-961.781028
-962.75904
-963.770255
-964.81602
-965.897329
-967.014784
-967.952813
-968.786733
-969.645448
-970.528031
-971.433162
-972.359104
-973.303681
-974.264253
-975.237697
-976.220386
-977.208171
-978.196372
-979.179761
-980.152563
-981.108465
-982.040631
-982.941717
-983.803917
-984.616752
-985.397636
-986.135153
-986.82248
-987.453343
-988.022212
-988.804873
-989.214418
-989.54528
-989.798575
-989.977692
-990.089239
-990.111863
-990.257125
-990.058352
-947.50652
-947.626766
-947.857002
-948.174208
-948.556844
-948.988064
-949.456683
-949.956368
-950.484339
-951.040204
-951.625091
-952.241066
-952.890758
-953.577166
-954.303458
-955.072924
-955.8889
-956.698123
-957.583064
-958.495218
-959.436489
-960.408572
-961.412994
-962.450958
-963.523321
-964.63059
-965.772892
-966.949936
-967.947906
-968.820377
-969.714741
-970.629434
-971.562505
-972.511593
-973.473911
-974.446226
-975.424844
-976.405599
-977.383847
-978.354454
-979.311805
-980.249815
-981.16195
-982.041251
-982.880372
-983.669345
-984.425856
-985.13882
-985.801906
-986.40937
-986.956234
-987.722044
-988.114684
-988.43181
-988.674753
-988.846906
-988.954829
-988.976067
-989.119474
-988.910535
-945.464152
-945.58348
-945.814124
-946.135531
-946.528122
-946.976011
-947.468151
-947.997873
-948.561854
-949.159097
-949.790129
-950.456269
-951.159653
-951.903486
-952.690587
-953.465443
-954.315679
-955.191036
-956.093527
-957.024895
-957.986748
-958.980415
-960.006936
-961.067031
-962.161083
-963.289139
-964.450878
-965.645582
-966.872118
-967.925773
-968.827751
-969.747761
-970.683644
-971.632857
-972.592455
-973.55908
-974.528944
-975.497822
-976.461035
-977.413453
-978.349499
-979.263156
-980.147978
-980.997107
-981.801044
-982.576025
-983.31186
-984.002613
-984.642666
-985.226924
-985.75101
-986.211474
-986.878801
-987.185925
-987.421439
-987.588883
-987.694856
-987.716237
-987.861479
-987.642073
-943.179468
-943.300828
-943.960381
-944.287914
-944.692752
-945.159981
-945.678287
-946.241255
-946.845672
-947.49076
-948.177481
-948.845625
-949.589326
-950.355892
-951.147517
-951.966127
-952.81317
-953.689898
-954.597553
-955.537208
-956.509731
-957.515763
-958.555699
-959.629659
-960.73747
-961.878655
-963.052407
-964.257557
-965.492557
-966.755457
-967.866409
-968.787385
-969.721941
-970.667392
-971.620688
-972.57841
-973.536753
-974.491524
-975.438136
-976.37161
-977.286593
-978.177363
-979.037855
-979.861683
-980.639909
-981.389154
-982.099184
-982.764409
-983.379673
-983.94037
-984.442621
-984.883472
-985.53907
-985.832902
-986.058446
-986.219339
-986.322124
-986.342683
-986.489436
-986.258104
-941.578801
-941.702956
-941.947469
-942.296559
-942.735128
-943.603289
-944.143007
-944.717897
-945.324455
-945.960809
-946.626179
-947.320524
-948.044109
-948.797325
-949.58093
-950.395762
-951.24264
-952.122316
-953.035426
-953.982459
-954.963722
-955.979325
-957.029152
-958.112829
-959.229733
-960.378951
-961.559263
-962.769114
-964.006601
-965.269446
-966.554977
-967.737541
-968.666291
-969.603456
-970.545885
-971.490084
-972.43221
-973.36806
-974.293067
-975.202313
-976.090534
-976.952118
-977.78113
-978.569081
-979.331385
-980.058617
-980.745627
-981.387498
-981.979708
-982.518266
-982.999876
-983.422119
-984.067756
-984.349041
-984.565247
-984.720121
-984.820158
-984.840162
-984.988887
-984.744489
-940.191456
-940.293909
-940.497717
-940.790803
-941.170775
-941.621782
-942.127215
-942.678798
-943.683831
-944.302529
-944.955596
-945.641988
-946.361306
-947.113565
-947.89901
-948.717986
-949.570851
-950.457912
-951.379374
-952.335308
-953.325624
-954.350041
-955.408068
-956.498973
-957.621787
-958.775273
-959.957899
-961.167828
-962.402892
-963.660583
-964.938024
-966.231959
-967.51167
-968.437163
-969.365549
-970.293348
-971.216768
-972.131709
-973.033756
-973.918202
-974.780052
-975.614036
-976.414627
-977.173805
-977.907314
-978.605672
-979.264014
-979.877805
-980.442921
-980.955773
-981.413448
-981.813878
-982.156022
-982.718583
-982.927988
-983.079091
-983.17833
-983.199315
-983.351483
-983.093238
-938.744335
-938.842402
-939.038824
-939.322701
-940.095358
-940.517786
-940.996195
-941.523524
-942.094589
-942.705782
-943.354708
-944.039846
-944.760271
-945.515435
-946.305002
-947.128736
-947.986408
-948.877734
-949.802333
-950.759685
-951.749105
-952.769723
-953.820455
-954.899984
-956.006759
-957.138967
-958.294513
-959.471008
-960.673144
-961.919713
-963.182877
-964.459253
-965.74509
-967.087526
-968.067565
-968.97417
-969.873968
-970.76291
-971.636673
-972.490658
-973.320001
-974.119578
-974.881781
-975.621339
-976.329478
-977.001761
-977.633933
-978.222038
-978.762524
-979.252353
-979.689142
-980.071312
-980.398262
-980.670479
-981.165486
-981.318947
-981.424683
-981.455699
-981.622099
-981.29048
-937.606101
-937.699617
-937.88813
-938.161752
-938.510852
-938.925922
-939.398588
-939.92205
-940.491102
-941.101937
-941.751867
-942.439036
-943.16218
-943.920418
-944.713104
-945.539705
-946.399715
-947.292592
-948.217705
-949.174301
-950.161474
-951.178141
-952.223006
-953.294574
-954.39112
-955.510668
-956.650978
-957.809538
-958.983549
-960.169914
-961.365226
-962.565759
-963.800355
-965.357219
-966.460408
-967.535777
-968.409362
-969.270325
-970.114557
-970.937728
-971.735296
-972.502515
-973.232192
-973.939371
-974.615238
-975.255627
-975.85664
-976.414698
-976.926627
-977.389766
-977.802085
-978.162321
-978.470107
-978.726024
-978.931659
-979.367251
-979.471621
-979.502741
-979.672179
-979.321793
-936.058833
-936.147832
-936.328617
-936.592431
-936.931005
-937.335939
-937.799594
-938.315529
-938.878605
-939.484876
-940.131395
-940.815991
-941.537058
-942.293381
-943.083992
-943.908053
-944.764777
-945.653356
-946.572916
-947.522473
-948.500907
-949.506935
-950.539072
-951.595656
-952.674803
-953.774393
-954.892062
-956.025192
-957.170896
-958.326012
-959.487092
-960.650396
-961.811886
-962.967223
-964.128644
-965.596418
-966.642178
-967.626298
-968.434341
-969.219618
-969.97774
-970.701897
-971.406325
-972.082726
-972.727275
-973.336295
-973.90635
-974.434314
-974.917454
-975.353526
-975.740883
-976.078595
-976.36654
-976.605358
-976.796869
-976.944893
-977.335411
-977.365544
-977.537524
-977.16651
-934.538319
-934.622277
-934.794224
-935.046423
-935.371894
-935.763355
-936.21397
-936.717763
-937.269766
-937.865996
-938.503326
-939.179321
-939.892076
-940.640064
-941.422009
-942.236784
-943.083326
-943.960574
-944.867415
-945.80265
-946.764958
-947.752869
-948.764736
-949.798744
-950.852874
-951.924889
-953.012328
-954.112492
-955.222436
-956.338962
-957.458612
-958.577659
-959.692108
-960.79769
-961.889865
-962.963821
-964.045361
-965.161377
-966.395908
-967.320357
-968.058216
-968.754141
-969.425015
-970.067308
-970.677588
-971.252603
-971.78933
-972.285048
-972.737413
-973.144542
-973.505114
-973.818474
-974.084676
-974.304335
-974.479463
-974.613996
-974.712943
-974.744957
-975.208236
-974.815218
-933.037416
-933.115889
-933.278051
-933.517036
-933.827054
-934.201903
-934.635581
-935.122656
-935.658439
-936.239011
-936.861155
-937.522251
-938.220153
-938.953067
-939.719445
-940.517894
-941.3471
-942.205769
-943.092574
-944.006121
-944.944916
-945.907317
-946.891557
-947.895703
-948.917637
-949.955049
-951.005425
-952.06604
-953.13395
-954.205986
-955.27875
-956.348611
-957.411704
-958.463938
-959.500984
-960.518291
-961.511103
-962.474469
-963.467184
-964.462843
-965.415355
-966.344306
-967.238331
-967.903145
-968.475274
-969.013188
-969.514182
-969.975851
-970.39616
-970.773517
-971.106861
-971.395742
-971.640304
-971.84116
-972.000514
-972.1223
-972.211103
-972.233933
-972.409597
-972.000211
-931.539124
-931.61175
-931.763354
-931.987779