/*--------------------------------*- C++ -*----------------------------------*\
  =========                 |
  \\      /  F ield         | OpenFOAM: The Open Source CFD Toolbox
   \\    /   O peration     | Website:  https://openfoam.org
    \\  /    A nd           | Version:  11
     \\/     M anipulation  |
\*---------------------------------------------------------------------------*/
FoamFile
{
    format      ascii;
    class       volScalarField;
    location    "1.99414e-05";
    object      T.gas;
}
// * * * * * * * * * * * * * * * * * * * * * * * * * * * * * * * * * * * * * //

dimensions      [0 0 0 1 0 0 0];

internalField   nonuniform List<scalar> 
120000
(
293.076828
293.076937
293.077156
293.077484
293.077922
293.078469
293.079126
293.079892
293.080768
293.081753
293.082847
293.084051
293.085363
293.086782
293.088309
293.089941
293.091677
293.093516
293.095453
293.097488
293.099615
293.10183
293.104129
293.106504
293.108949
293.111455
293.114013
293.116611
293.119238
293.121878
293.124518
293.127138
293.129719
293.132241
293.134678
293.137006
293.139195
293.141216
293.143034
293.144614
293.145917
293.146903
293.147529
293.147749
293.147517
293.146787
293.145512
293.143652
293.141172
293.138053
293.134297
293.12994
293.125062
293.119815
293.114438
293.109274
293.104765
293.101498
293.095485
293.091723
293.111845
293.112038
293.112422
293.112997
293.113762
293.114715
293.115852
293.11717
293.118667
293.120337
293.122174
293.124173
293.126326
293.128626
293.131062
293.133624
293.136299
293.139075
293.141936
293.144865
293.147842
293.150847
293.153856
293.156844
293.159782
293.16264
293.165385
293.16798
293.170387
293.172565
293.17447
293.176057
293.177278
293.178083
293.178423
293.178247
293.177506
293.17615
293.174136
293.171422
293.167976
293.163773
293.1588
293.153062
293.146577
293.139389
293.131571
293.123224
293.114491
293.105551
293.096634
293.088011
293.079998
293.072949
293.067239
293.063233
293.061395
293.061247
293.061121
293.059709
293.144637
293.144895
293.145409
293.146178
293.147199
293.148468
293.149981
293.151731
293.153712
293.155913
293.158326
293.160939
293.163737
293.166706
293.169828
293.173085
293.176454
293.179912
293.183431
293.186983
293.190536
293.194054
293.197499
293.20083
293.204002
293.206968
293.209676
293.212073
293.214101
293.215702
293.216813
293.217372
293.217315
293.216578
293.215099
293.212818
293.209679
293.205631
293.200634
293.194658
293.187685
293.179718
293.170778
293.160914
293.150204
293.138758
293.126729
293.114309
293.101737
293.08931
293.077357
293.066236
293.056324
293.048005
293.041786
293.037069
293.034078
293.033444
293.032279
293.02909
293.176412
293.176717
293.177326
293.178236
293.179446
293.180951
293.182745
293.184822
293.18717
293.189779
293.192634
293.195719
293.199016
293.202502
293.206155
293.209948
293.213851
293.217833
293.221856
293.225883
293.229872
293.233777
293.237549
293.241134
293.244478
293.24752
293.250198
293.252447
293.254197
293.255379
293.255918
293.255743
293.254781
293.252959
293.250208
293.246464
293.241667
293.235769
293.228729
293.220525
293.211148
293.200612
293.188959
293.176255
293.162602
293.14814
293.133027
293.117443
293.102401
293.087283
293.073177
293.060453
293.049528
293.040082
293.032694
293.026851
293.022678
293.021206
293.01873
293.014473
293.207669
293.208
293.208661
293.209654
293.210979
293.212633
293.214613
293.21691
293.219515
293.222414
293.225589
293.229021
293.232687
293.23656
293.240612
293.244809
293.249118
293.253498
293.257908
293.262301
293.26663
293.270841
293.274878
293.278679
293.282183
293.28532
293.288023
293.290217
293.291827
293.292776
293.292985
293.292375
293.290868
293.288386
293.284856
293.280206
293.274373
293.2673
293.258935
293.249246
293.238216
293.225854
293.212192
293.197286
293.182018
293.1656
293.148953
293.13229
293.115891
293.100098
293.085287
293.071862
293.060297
293.050247
293.042066
293.035198
293.030742
293.028323
293.025322
293.021186
293.238501
293.238833
293.2395
293.24051
293.241872
293.243589
293.245661
293.248083
293.250845
293.253929
293.257318
293.260988
293.264912
293.26906
293.2734
293.277893
293.282499
293.287177
293.291878
293.296551
293.301145
293.305599
293.309855
293.313847
293.317508
293.320767
293.323551
293.325782
293.327384
293.328277
293.32838
293.327614
293.325901
293.323164
293.319326
293.314322
293.308099
293.304071
293.295131
293.284615
293.272509
293.258802
293.240655
293.224759
293.20833
293.191518
293.174519
293.157573
293.140963
293.125023
293.110122
293.096712
293.084501
293.073857
293.06506
293.058304
293.053656
293.050603
293.047453
293.044149
293.26872
293.269024
293.269645
293.270606
293.271929
293.273629
293.275711
293.278173
293.281004
293.284186
293.287697
293.291511
293.295597
293.299923
293.30445
293.30914
293.313948
293.318828
293.32373
293.3286
293.333384
293.33802
293.342445
293.346595
293.3504
293.353788
293.356685
293.359019
293.360713
293.36169
293.361874
293.361184
293.359553
293.360362
293.35654
293.351343
293.344713
293.336588
293.326908
293.315621
293.303109
293.289236
293.274423
293.258767
293.242385
293.221967
293.20497
293.188087
293.17159
293.155798
293.14107
293.127834
293.115768
293.105247
293.096538
293.089824
293.085166
293.082748
293.078698
293.076494
293.29805
293.298297
293.29882
293.299668
293.300884
293.302498
293.304522
293.306953
293.30978
293.312984
293.316537
293.320412
293.324574
293.328986
293.33361
293.338403
293.343318
293.348307
293.353319
293.3583
293.363191
293.367933
293.372462
293.376714
293.380623
293.38412
293.387136
293.389598
293.391433
293.392569
293.396329
293.395768
293.394065
293.391148
293.386935
293.381354
293.374334
293.365812
293.35573
293.34447
293.331866
293.318334
293.303932
293.288751
293.272915
293.25659
293.239978
293.223316
293.203527
293.188034
293.173667
293.160821
293.149156
293.139034
293.130708
293.12435
293.120011
293.117872
293.113789
293.112576
293.326255
293.326417
293.326795
293.327476
293.328531
293.330005
293.331916
293.33426
293.337024
293.340183
293.343709
293.347569
293.351727
293.356143
293.360775
293.365579
293.370508
293.375512
293.380539
293.385532
293.390438
293.395196
293.399745
293.404022
293.407961
293.411495
293.414559
293.417085
293.422387
293.423542
293.423716
293.422827
293.420795
293.417542
293.412991
293.407069
293.399708
293.390843
293.380847
293.36952
293.357264
293.344116
293.330142
293.315439
293.300139
293.284408
293.268448
293.252498
293.236837
293.218404
293.204801
293.192171
293.180851
293.171107
293.163161
293.157159
293.153134
293.151265
293.147243
293.146857
293.353197
293.353249
293.353446
293.353921
293.354777
293.356073
293.35783
293.360043
293.362692
293.365752
293.36919
293.372968
293.377049
293.38139
293.385949
293.390679
293.395533
293.400462
293.405411
293.410328
293.415154
293.419829
293.424293
293.428481
293.432328
293.435767
293.43873
293.44461
293.446336
293.447147
293.446967
293.445719
293.443325
293.439707
293.43479
293.4285
293.420762
293.41193
293.401785
293.390712
293.378737
293.365907
293.352296
293.338008
293.323177
293.307968
293.292583
293.277254
293.262254
293.247889
293.231194
293.219018
293.208139
293.198802
293.191201
293.185455
293.181573
293.179711
293.176317
293.175873
293.378844
293.378771
293.378764
293.37901
293.379645
293.380739
293.382313
293.384359
293.386854
293.389767
293.393062
293.3967
293.400642
293.404844
293.409261
293.413848
293.418556
293.423334
293.428131
293.432892
293.437562
293.442082
293.446395
293.45044
293.454157
293.460869
293.463667
293.465724
293.466964
293.467309
293.466684
293.465012
293.462219
293.458234
293.452988
293.446416
293.438458
293.429502
293.419311
293.40827
293.396398
293.38374
293.370367
293.356381
293.341914
293.327127
293.312211
293.297396
293.28294
293.269136
293.252867
293.241231
293.230868
293.222009
293.214838
293.209459
293.205876
293.20425
293.20101
293.201069
293.403258
293.403054
293.402837
293.402847
293.403251
293.404127
293.405497
293.40735
293.409657
293.412386
293.415496
293.418947
293.422696
293.426701
293.430915
293.435291
293.439781
293.444334
293.448898
293.453419
293.45784
293.462105
293.466154
293.469926
293.476781
293.479746
293.482032
293.483568
293.484282
293.484101
293.482951
293.480757
293.477447
293.472952
293.4672
293.460125
293.452096
293.442843
293.432746
293.421817
293.410086
293.39761
293.384466
293.370763
293.356633
293.342238
293.327771
293.313455
293.299547
293.286331
293.274138
293.259386
293.24945
293.241005
293.234213
293.229165
293.225853
293.22444
293.221356
293.221793
293.426576
293.426245
293.425823
293.425602
293.425774
293.426426
293.427579
293.429217
293.431311
293.433822
293.43671
293.439933
293.443446
293.447206
293.451167
293.455283
293.459504
293.463783
293.468069
293.472309
293.476452
293.480444
293.487557
293.491013
293.49394
293.496269
293.497928
293.498844
293.498944
293.498154
293.496399
293.493606
293.4897
293.48461
293.478259
293.471
293.462546
293.453266
293.443163
293.432258
293.420591
293.408223
293.39524
293.381751
293.36789
293.353817
293.339723
293.325826
293.312372
293.299631
293.287915
293.273574
293.264079
293.256042
293.249612
293.244872
293.241803
293.240572
293.237635
293.238352
293.448978
293.448531
293.447919
293.447479
293.447424
293.447849
293.448773
293.45018
293.452036
293.454301
293.456934
293.45989
293.463125
293.466594
293.470252
293.474051
293.477943
293.481881
293.485815
293.489693
293.493464
293.500426
293.503756
293.506609
293.508923
293.510632
293.511668
293.511963
293.511448
293.510052
293.507708
293.504349
293.499908
293.494321
293.487528
293.479908
293.471159
293.461651
293.451384
293.440377
293.428672
293.416332
293.403443
293.390117
293.376489
293.362719
293.349001
293.335555
293.322628
293.310516
293.298974
293.284894
293.275704
293.26797
293.261821
293.257321
293.254441
293.253347
293.250535
293.251456
293.470673
293.470125
293.469343
293.468699
293.468426
293.468623
293.469312
293.470474
293.472075
293.474074
293.476426
293.479087
293.482013
293.485157
293.488475
293.491918
293.49544
293.498992
293.502524
293.505983
293.512696
293.515798
293.518475
293.520669
293.522316
293.523354
293.523716
293.523336
293.522146
293.520077
293.517064
293.513037
293.507927
293.501668
293.494617
293.486451
293.47754
293.467882
293.45749
293.446397
293.434649
293.422317
293.409492
293.396285
293.382828
293.369285
293.355844
293.342717
293.33014
293.318392
293.307218
293.293497
293.284664
293.277258
293.271399
293.267137
293.264435
293.263463
293.260764
293.261842
293.491878
293.491246
293.490317
293.489488
293.489006
293.488979
293.489429
293.490339
293.491675
293.493393
293.49545
293.497801
293.500403
293.503211
293.50618
293.509265
293.512423
293.515607
293.522072
293.52511
293.527846
293.530221
293.532178
293.533654
293.534587
293.534915
293.534574
293.533499
293.531627
293.528895
293.52524
293.5206
293.514916
293.508131
293.500631
293.492075
293.482834
293.472903
293.462295
293.451043
293.439196
293.426824
293.414017
293.400885
293.387561
293.374207
293.361003
293.348156
293.335891
293.324478
293.313656
293.300288
293.291793
293.284698
293.279107
293.275062
293.272521
293.271653
293.269054
293.270256
293.512812
293.512112
293.511058
293.51006
293.50938
293.509132
293.509341
293.509991
293.511049
293.51247
293.514213
293.516231
293.51848
293.520916
293.523493
293.526167
293.528892
293.534963
293.537597
293.539964
293.542011
293.543683
293.544924
293.545677
293.545882
293.545478
293.544402
293.542594
293.539991
293.53653
293.532147
293.52678
293.520366
293.513273
293.505139
293.496335
293.486859
293.476718
293.465935
293.45455
293.442618
293.430212
293.417423
293.404363
293.391166
293.37799
293.365012
293.352431
293.340463
293.329368
293.318879
293.305852
293.297676
293.29087
293.285527
293.281681
293.279282
293.278501
293.275993
293.277296
293.533708
293.532955
293.531796
293.53065
293.529784
293.529322
293.529294
293.529686
293.530466
293.531591
293.533018
293.534705
293.536607
293.538681
293.540884
293.546471
293.548753
293.550866
293.552761
293.554386
293.555688
293.556614
293.557107
293.55711
293.556566
293.555418
293.553607
293.551074
293.547762
293.543613
293.53857
293.53258
293.525593
293.517999
293.509418
293.500226
293.490416
293.479996
293.46899
293.457439
293.445399
293.432945
293.420163
293.407169
293.394095
293.381094
293.368339
293.35602
293.344343
293.333554
293.323379
293.310675
293.302792
293.296249
293.29113
293.287459
293.285183
293.284474
293.282048
293.283435
293.554811
293.55402
293.552777
293.5515
293.550464
293.549798
293.549539
293.549677
293.550179
293.551007
293.552117
293.553467
293.555014
293.559993
293.561766
293.563452
293.565007
293.566383
293.567532
293.568402
293.568942
293.569098
293.568817
293.568042
293.566718
293.564789
293.562198
293.558886
293.554797
293.549875
293.544064
293.537313
293.53
293.521724
293.512859
293.503397
293.493343
293.482714
293.471541
293.459871
293.447763
293.435294
293.422559
293.409675
293.396776
293.384017
293.371569
293.359625
293.348417
293.337706
293.327717
293.315247
293.307583
293.301247
293.296308
293.292778
293.290598
293.289942
293.287588
293.289045
293.57641
293.575594
293.574288
293.572904
293.571718
293.570869
293.570398
293.5703
293.570547
293.571106
293.575143
293.576166
293.577231
293.578299
293.579324
293.58026
293.58106
293.581675
293.582058
293.582155
293.581917
293.581291
293.580222
293.578658
293.576543
293.573822
293.570436
293.566332
293.561451
293.555739
293.549139
293.542024
293.533977
293.525369
293.51619
293.50644
293.496131
293.485285
293.47394
293.462144
293.44996
293.437466
293.424762
293.411961
293.399197
293.386618
293.37439
293.362695
293.351753
293.341319
293.331615
293.319445
293.312046
293.305946
293.301205
293.297827
293.295748
293.295146
293.292862
293.294386
293.598832
293.598007
293.596664
293.5952
293.593898
293.592907
293.595399
293.595107
293.595018
293.5951
293.595315
293.595618
293.595965
293.596308
293.596603
293.596802
293.596858
293.596723
293.596348
293.595683
293.594677
293.593282
293.591445
293.589113
293.586236
293.58276
293.578635
293.573809
293.568234
293.56186
293.554642
293.546976
293.538425
293.529365
293.519784
293.509683
293.499073
293.487981
293.476441
293.464503
293.452231
293.439707
293.427027
293.414304
293.401667
293.38926
293.377243
293.365789
293.355111
293.344958
293.335544
293.323673
293.316538
293.310672
293.306124
293.302892
293.300911
293.300359
293.298141
293.29973
293.625844
293.624975
293.623516
293.621841
293.62022
293.618792
293.617607
293.616661
293.615923
293.615357
293.614916
293.614555
293.614228
293.613887
293.613485
293.612975
293.612311
293.611443
293.610325
293.608908
293.607142
293.604979
293.602367
293.599257
293.595598
293.591341
293.586435
293.580832
293.574482
293.56734
293.559795
293.551389
293.542498
293.533111
293.523227
293.512854
293.502008
293.490719
293.479027
293.466984
293.454658
293.442131
293.429501
293.416878
293.404388
293.39217
293.380377
293.369175
293.358765
293.34889
293.339758
293.328174
293.321292
293.315645
293.311278
293.308182
293.306288
293.30578
293.303623
293.305276
293.647965
293.647037
293.645452
293.643577
293.641684
293.639922
293.638348
293.636969
293.635762
293.634692
293.633717
293.632794
293.631877
293.630921
293.629882
293.628714
293.62737
293.625806
293.623975
293.621828
293.61932
293.616402
293.613026
293.609145
293.60471
293.599673
293.593988
293.587606
293.580482
293.573006
293.564702
293.555943
293.546718
293.537021
293.526855
293.516234
293.505179
293.493723
293.481909
293.469797
293.457456
293.444972
293.432441
293.419976
293.407702
293.395759
293.3843
293.373516
293.36318
293.353479
293.344549
293.333195
293.326517
293.321054
293.316839
293.313856
293.312033
293.311557
293.309456
293.311171
293.670872
293.669759
293.667824
293.665481
293.663043
293.660688
293.658492
293.656592
293.654975
293.653457
293.651999
293.650559
293.649096
293.647566
293.645925
293.644131
293.642137
293.639902
293.637379
293.634524
293.631291
293.627636
293.623513
293.618876
293.613679
293.607877
293.601425
293.594278
293.586829
293.578583
293.569912
293.560805
293.551251
293.541253
293.530817
293.519961
293.508708
293.497096
293.485174
293.473001
293.460649
293.448201
293.435756
293.42342
293.411317
293.399579
293.388352
293.377817
293.367739
293.358307
293.349648
293.338564
293.332124
293.326868
293.322819
293.319959
293.318211
293.317771
293.315725
293.317506
293.694653
293.693514
293.691505
293.68902
293.686367
293.683727
293.681185
293.678761
293.676439
293.674188
293.671965
293.669727
293.667425
293.665013
293.662441
293.659662
293.656729
293.653837
293.650639
293.647091
293.64315
293.638774
293.633918
293.62854
293.622597
293.616046
293.608844
293.601387
293.59316
293.584539
293.575509
293.566061
293.556191
293.545904
293.535215
293.524135
293.5127
293.50095
293.488935
293.476717
293.464367
293.451969
293.439617
293.427418
293.41549
293.40396
293.392966
293.382684
293.372876
293.363721
293.355339
293.344524
293.338322
293.33327
293.329386
293.326645
293.324972
293.324566
293.322572
293.324424
293.718065
293.716907
293.714838
293.712229
293.70938
293.706475
293.703604
293.700795
293.698038
293.695307
293.692562
293.689763
293.686864
293.68382
293.680586
293.677116
293.673363
293.669282
293.664826
293.659948
293.654971
293.649888
293.644315
293.638213
293.63154
293.624257
293.616763
293.608525
293.599922
293.590936
293.581559
293.571784
293.561614
293.551055
293.540124
293.528845
293.517252
293.505388
293.493305
293.481066
293.468741
293.456414
293.444177
293.432134
293.420397
293.409089
293.398341
293.388319
293.37878
293.369898
293.361786
293.351228
293.345255
293.340397
293.336668
293.334037
293.33243
293.332054
293.330109
293.332037
293.741199
293.74003
293.737912
293.735194
293.732164
293.729008
293.725823
293.722642
293.719463
293.716262
293.713007
293.709659
293.706174
293.702512
293.698628
293.69448
293.690023
293.685215
293.68001
293.674366
293.668239
293.661584
293.654757
293.647947
293.640564
293.633013
293.62474
293.616128
293.60716
293.597826
293.588119
293.578039
293.567588
293.556782
293.545641
293.534193
293.522475
293.510533
293.49842
293.486199
293.473944
293.461738
293.449674
293.437854
293.42639
293.415404
293.405054
293.39512
293.385762
293.377085
293.369188
293.358844
293.353064
293.348373
293.344777
293.342241
293.340687
293.340332
293.338429
293.340437
293.764068
293.762892
293.760734
293.75792
293.754725
293.751334
293.747848
293.744308
293.740719
293.737061
293.733307
293.72942
293.725362
293.721093
293.716573
293.711761
293.706616
293.701096
293.695162
293.688771
293.681883
293.674456
293.66645
293.657825
293.650146
293.641822
293.633182
293.624212
293.6149
293.605239
293.595223
293.584857
293.574153
293.563127
293.551804
293.540213
293.528394
293.516393
293.504265
293.492074
293.479892
293.4678
293.455888
293.444255
293.433007
293.422259
293.41216
293.402486
293.393394
293.384986
293.377351
293.367245
293.361681
293.357173
293.353719
293.351284
293.349788
293.349457
293.347595
293.34969
293.78663
293.78545
293.783262
293.780363
293.777017
293.773404
293.769631
293.765745
293.761755
293.75765
293.753405
293.748988
293.744365
293.739498
293.73435
293.728883
293.723059
293.716841
293.71019
293.703069
293.695441
293.68727
293.678518
293.669675
293.660043
293.651028
293.642052
293.632757
293.62313
293.613171
293.602882
293.592271
293.581352
293.570145
293.558675
293.546977
293.535091
293.523065
293.510953
293.498819
293.486735
293.47478
293.46304
293.451611
293.440593
293.430095
293.420258
293.410855
293.402039
293.393903
293.386531
293.376654
293.371304
293.366973
293.363657
293.361317
293.359876
293.359566
293.357742
293.359932
293.808804
293.807624
293.805411
293.802438
293.798952
293.795129
293.791079
293.786853
293.782469
293.777918
293.773181
293.768231
293.763034
293.757558
293.751766
293.745622
293.739091
293.732136
293.72472
293.716809
293.708364
293.699878
293.690625
293.681057
293.671158
293.660912
293.651224
293.641675
293.631804
293.621616
293.611116
293.600319
293.589241
293.577906
293.566345
293.554592
293.54269
293.53069
293.518648
293.506627
293.4947
293.482945
293.471449
293.460306
293.449615
293.439511
293.429788
293.420583
293.411985
293.404078
293.396933
293.387253
293.382091
293.377918
293.374724
293.372468
293.371071
293.370778
293.368988
293.37128
293.830478
293.829301
293.82707
293.824034
293.82042
293.816402
293.812087
293.807534
293.802764
293.797776
293.792554
293.787074
293.781307
293.775222
293.768785
293.761962
293.754719
293.747022
293.738835
293.73066
293.721737
293.712526
293.703008
293.693167
293.682989
293.672465
293.66159
293.651265
293.641176
293.630787
293.620109
293.609158
293.597955
293.586527
293.574906
293.563129
293.551239
293.539289
293.527333
293.515435
293.503666
293.492101
293.480823
293.469921
293.45949
293.449656
293.440208
293.431285
293.42297
293.415337
293.408455
293.398986
293.394031
293.390028
293.386963
293.384796
293.383447
293.383173
293.381415
293.38382
293.85145
293.85028
293.848039
293.844952
293.841228
293.837031
293.832471
293.827608
293.822469
293.817059
293.811367
293.805372
293.799049
293.792369
293.7853
293.777812
293.76987
293.761995
293.753382
293.744505
293.735344
293.725884
293.716108
293.706007
293.69557
293.684794
293.673676
293.662221
293.651324
293.640769
293.629948
293.618882
293.607593
293.59611
293.584468
293.572704
293.560864
293.548999
293.537163
293.52542
293.513838
293.502489
293.491454
293.480815
293.470663
293.461118
293.451965
293.443339
293.435317
293.427968
293.421351
293.412086
293.407336
293.403499
293.40056
293.398477
293.397171
293.396914
293.395179
293.397707
293.871327
293.870166
293.867921
293.864793
293.860972
293.856613
293.851824
293.846668
293.841179
293.835367
293.829226
293.822742
293.815897
293.808658
293.800997
293.793456
293.785182
293.776662
293.767879
293.758815
293.749454
293.739783
293.729792
293.719475
293.708828
293.697849
293.686543
293.674916
293.662978
293.651592
293.64068
293.629549
293.618226
293.606742
293.595132
293.583437
293.571703
293.559981
293.548328
293.536805
293.52548
293.514426
293.503721
293.493448
293.483722
293.474346
293.465443
293.457086
293.449342
293.442273
293.435933
293.430362
293.422288
293.418572
293.415723
293.413697
293.412415
293.412156
293.410399
293.413054
293.893562
293.892381
293.885962
293.882775
293.878835
293.874287
293.869243
293.863764
293.857882
293.851604
293.84492
293.838418
293.83118
293.823719
293.816015
293.808048
293.799804
293.791272
293.782438
293.773293
293.763828
293.754037
293.743916
293.733464
293.722683
293.711576
293.700153
293.688424
293.676405
293.664114
293.65231
293.641168
293.629861
293.618423
293.606889
293.595302
293.583707
293.572156
293.560704
293.54941
293.53834
293.527563
293.517152
293.507185
293.49777
293.488705
293.480115
293.472066
293.464623
293.457839
293.451762
293.446429
293.438497
293.434942
293.432213
293.430267
293.429023
293.428774
293.426999
293.429798
293.909141
293.907932
293.905553
293.902155
293.897887
293.889438
293.884185
293.87859
293.872687
293.866494
293.860018
293.85326
293.846218
293.838888
293.831261
293.823331
293.815089
293.806528
293.797641
293.788424
293.778875
293.76899
293.758773
293.748227
293.737356
293.726172
293.714685
293.70291
293.690867
293.678576
293.666065
293.653869
293.642633
293.631295
293.619893
293.608469
293.597071
293.585748
293.574557
293.563557
293.55281
293.542387
293.532357
293.522824
293.513601
293.504802
293.496491
293.488725
293.48156
293.475044
293.469218
293.464109
293.456298
293.452895
293.450279
293.448405
293.447195
293.446953
293.445153
293.44811
293.922643
293.921646
293.919662
293.91681
293.913112
293.908722
293.903803
293.898435
293.888654
293.882632
293.876277
293.869596
293.862596
293.855275
293.84763
293.83966
293.83136
293.822726
293.813759
293.804455
293.794817
293.784847
293.77455
293.763933
293.753005
293.741779
293.73027
293.718494
293.706474
293.694234
293.681802
293.669209
293.656602
293.645405
293.634173
293.622948
293.611776
293.600706
293.589793
293.579093
293.568665
293.558575
293.548889
293.539704
293.53083
293.522381
293.514416
293.50699
293.500153
293.493948
293.488411
293.483566
293.479427
293.472621
293.470087
293.468259
293.467058
293.466805
293.464964
293.468088
293.936726
293.935772
293.93386
293.931098
293.923578
293.919467
293.914811
293.909679
293.904121
293.898172
293.891857
293.885189
293.878178
293.870828
293.863144
293.855127
293.84678
293.838105
293.829107
293.819789
293.81016
293.800227
293.790001
293.779495
293.768723
293.757704
293.746458
293.735008
293.723309
293.711177
293.698883
293.686461
293.673947
293.660882
293.649877
293.638908
293.628022
293.617267
293.606696
293.596364
293.58633
293.576656
293.567435
293.558487
293.54992
293.541786
293.534138
293.527022
293.520483
293.514557
293.509273
293.504649
293.500693
293.4974
293.491411
293.489554
293.488275
293.4879
293.485887
293.489899
293.947804
293.946894
293.945059
293.942396
293.938999
293.934959
293.930359
293.925265
293.919726
293.913782
293.907456
293.900769
293.893731
293.886351
293.878637
293.870592
293.862222
293.853532
293.844529
293.835219
293.825611
293.815717
293.805548
293.795119
293.784447
293.773552
293.762454
293.751178
293.739752
293.728206
293.716573
293.704889
293.692874
293.677722
293.666985
293.656311
293.645741
293.635325
293.625111
293.615152
293.605502
293.59622
293.587392
293.578836
293.570659
293.562912
293.55564
293.548889
293.542695
293.537092
293.532103
293.527745
293.524021
293.520925
293.518437
293.513167
293.511904
293.511528
293.509478
293.513717
293.962863
293.961996
293.960237
293.957669
293.954374
293.950433
293.945921
293.9409
293.93542
293.929519
293.923227
293.916564
293.909547
293.902186
293.894492
293.886472
293.878134
293.869486
293.860536
293.851295
293.841773
293.831982
293.821937
293.811654
293.801151
293.790449
293.779572
293.768544
293.757394
293.746152
293.734852
293.72353
293.712226
293.700982
293.689679
293.675394
293.665216
293.655215
293.645439
293.635939
293.626766
293.618005
293.609483
293.601299
293.593501
293.586133
293.579236
293.572848
293.567003
293.561727
293.557041
293.552955
293.549471
293.546582
293.544265
293.542474
293.537749
293.537385
293.535304
293.539793
293.977661
293.976844
293.97517
293.972716
293.969548
293.965738
293.961353
293.95645
293.951077
293.945275
293.939072
293.932493
293.925556
293.918277
293.910667
293.902737
293.894498
293.88596
293.877135
293.868033
293.858667
293.849053
293.839205
293.829142
293.818883
293.808449
293.797866
293.787159
293.776357
293.76549
293.754594
293.743703
293.732856
293.722097
293.711467
293.701015
293.690489
293.679628
293.667613
293.658616
293.64999
293.64157
293.633454
293.625683
293.618299
293.611342
293.604849
293.598851
293.593378
293.588453
293.58409
293.580299
293.577078
293.574421
293.572302
293.570674
293.569477
293.56909
293.563485
293.56824
293.992268
293.991504
293.989926
293.9876
293.984583
293.980935
293.976714
293.971974
293.966759
293.961109
293.955054
293.94862
293.941828
293.934695
293.927236
293.919466
293.911396
293.903039
293.894408
293.885517
293.876381
293.867014
293.857435
293.847663
293.837717
293.82762
293.817398
293.807076
293.796682
293.786249
293.775809
293.765396
293.75505
293.744809
293.734717
293.724816
293.715153
293.705778
293.696116
293.686426
293.677156
293.668115
293.659414
293.651866
293.644944
293.638436
293.632375
293.626789
293.621704
293.617139
293.613106
293.609611
293.606652
293.604222
293.602294
293.60082
293.599746
293.59947
293.597344
293.602297
294.00685
294.006143
294.004667
294.002483
293.999636
293.996177
293.992156
293.98762
293.982612
293.977167
293.971318
293.96509
293.958506
293.951586
293.944347
293.936805
293.928974
293.92087
293.912507
293.903901
293.895067
293.886023
293.876787
293.867379
293.857821
293.848135
293.838346
293.828482
293.81857
293.80864
293.798727
293.788864
293.779087
293.769436
293.75995
293.750672
293.741646
293.732918
293.724536
293.716532
293.707773
293.69926
293.691088
293.683296
293.675923
293.669004
293.662571
293.65674
293.652013
293.647775
293.644035
293.640796
293.638057
293.635805
293.634011
293.632631
293.631611
293.631368
293.629222
293.634499
294.021626
294.020979
294.019613
294.017581
294.014921
294.011675
294.007884
294.003591
293.998833
293.993644
293.988055
293.982092
293.975779
293.969137
293.962184
293.954939
293.947417
293.939636
293.931612
293.923362
293.914902
293.906252
293.897431
293.888458
293.879357
293.870151
293.860864
293.851523
293.842156
293.832793
293.823466
293.814208
293.805055
293.796043
293.787211
293.778598
293.770247
293.7622
293.754486
293.747007
293.74084
293.732684
293.72506
293.717806
293.710955
293.704538
293.698581
293.693109
293.68814
293.683688
293.679761
293.67636
293.673483
293.671114
293.669214
293.667738
293.66663
293.666384
293.663912
293.670307
294.032764
294.032187
294.030951
294.029104
294.026675
294.023696
294.0202
294.016223
294.011798
294.006956
294.005499
293.999856
293.993873
293.98757
293.980967
293.974084
293.966939
293.959549
293.951932
293.944106
293.936089
293.927901
293.919562
293.911092
293.902513
293.89385
293.885126
293.876369
293.867605
293.858864
293.850176
293.841574
293.83309
293.82476
293.81662
293.808708
293.801062
293.793707
293.78655
293.779645
293.773026
293.768944
293.761628
293.754765
293.74845
293.742543
293.737069
293.732047
293.727491
293.723412
293.719815
293.716701
293.714065
293.711886
293.710127
293.708746
293.707689
293.707475
293.704975
293.711777
294.048339
294.047825
294.046705
294.045024
294.042805
294.040074
294.036858
294.033186
294.029087
294.024588
294.019716
294.014495
294.008948
294.003096
293.996962
293.990563
293.983921
293.980848
293.973702
293.966365
293.958855
293.951193
293.943398
293.935492
293.927497
293.919435
293.911332
293.903214
293.895105
293.887036
293.879034
293.87113
293.863356
293.855745
293.848331
293.841148
293.834149
293.827344
293.820764
293.814442
293.808406
293.806761
293.800179
293.79404
293.788379
293.783157
293.778171
293.773601
293.769458
293.765751
293.762482
293.759654
293.757258