/*--------------------------------*- C++ -*----------------------------------*\
  =========                 |
  \\      /  F ield         | OpenFOAM: The Open Source CFD Toolbox
   \\    /   O peration     | Website:  https://openfoam.org
    \\  /    A nd           | Version:  11
     \\/     M anipulation  |
\*---------------------------------------------------------------------------*/
FoamFile
{
    format      ascii;
    class       volScalarField;
    location    "1.99414e-05";
    object      thermalPhaseChange:Tsat.gas_liquid;
}
// * * * * * * * * * * * * * * * * * * * * * * * * * * * * * * * * * * * * * //

dimensions      [0 0 0 1 0 0 0];

internalField   nonuniform List<scalar> 
120000
(
295.843337
295.843417
295.843578
295.84382
295.844143
295.844548
295.845037
295.84561
295.84627
295.847017
295.847853
295.848781
295.849802
295.850918
295.852132
295.853446
295.854862
295.856383
295.858012
295.859751
295.861602
295.863568
295.865651
295.867852
295.870175
295.872621
295.87519
295.877884
295.880703
295.883648
295.886718
295.889911
295.893225
295.896659
295.900207
295.903866
295.907629
295.911489
295.915438
295.919463
295.923554
295.927695
295.931869
295.936055
295.940228
295.94436
295.948416
295.952358
295.956137
295.959698
295.962979
295.965907
295.968401
295.970375
295.971738
295.972404
295.972292
295.97138
295.96682
295.966584
295.865939
295.866096
295.86641
295.866882
295.867511
295.8683
295.869247
295.870354
295.871623
295.873052
295.874645
295.8764
295.87832
295.880404
295.882652
295.885065
295.887641
295.89038
295.893281
295.896341
295.899558
295.902926
295.906443
295.910101
295.913894
295.917812
295.921847
295.925986
295.930216
295.934522
295.938886
295.943288
295.947707
295.95212
295.956499
295.960816
295.96504
295.969139
295.973076
295.976815
295.980318
295.983546
295.986459
295.989019
295.991189
295.992934
295.994225
295.995038
295.995358
295.995181
295.994516
295.993389
295.991844
295.989949
295.987794
295.985492
295.983175
295.980995
295.976414
295.97737
295.888166
295.888392
295.888845
295.889524
295.890431
295.891564
295.892925
295.894513
295.896328
295.89837
295.900638
295.903133
295.905853
295.908795
295.911959
295.915341
295.918937
295.922743
295.926754
295.930961
295.935358
295.939934
295.944678
295.949577
295.954615
295.959774
295.965036
295.970377
295.975774
295.981198
295.986619
295.992004
295.997317
296.002519
296.00757
296.012427
296.017042
296.021371
296.025364
296.028975
296.032157
296.034865
296.037057
296.038698
296.039758
296.040219
296.040072
296.039322
296.037993
296.036129
296.033793
296.031065
296.028045
296.024851
296.021614
296.018368
296.015241
296.012676
296.007652
296.008223
295.910382
295.91067
295.911246
295.91211
295.913262
295.914702
295.916429
295.918442
295.92074
295.923323
295.926188
295.929333
295.932756
295.936452
295.940417
295.944645
295.949131
295.953865
295.958839
295.964042
295.96946
295.975078
295.980881
295.986848
295.992958
295.999186
296.005506
296.011886
296.018293
296.024692
296.031044
296.037304
296.043429
296.04937
296.055076
296.060495
296.065573
296.070255
296.074487
296.078215
296.081389
296.083963
296.085896
296.087154
296.087715
296.087567
296.086708
296.085143
296.082887
296.080221
296.077213
296.073958
296.070586
296.06725
296.063756
296.060262
296.056912
296.054357
296.049246
296.049731
295.932495
295.932837
295.933519
295.934543
295.935907
295.93761
295.939652
295.942031
295.944744
295.947791
295.951167
295.954869
295.958892
295.96323
295.967878
295.972827
295.978068
295.98359
295.98938
295.995425
296.001707
296.008208
296.014906
296.021778
296.028797
296.035933
296.043155
296.050425
296.057705
296.064953
296.072123
296.079167
296.086032
296.092664
296.099006
296.104998
296.11058
296.11569
296.120262
296.124236
296.127554
296.130166
296.132026
296.133099
296.133348
296.132988
296.132014
296.130447
296.128335
296.125754
296.122798
296.119586
296.116255
296.112827
296.109448
296.106279
296.103229
296.100677
296.095874
296.096579
295.954303
295.954689
295.955461
295.956617
295.958159
295.960083
295.962388
295.965072
295.968132
295.971565
295.975366
295.97953
295.984052
295.988924
295.994137
295.999682
296.005547
296.011719
296.018184
296.024923
296.031918
296.039148
296.046587
296.054208
296.061983
296.069877
296.077855
296.085878
296.093903
296.101884
296.109773
296.117517
296.125064
296.132355
296.139329
296.145926
296.152089
296.157763
296.162765
296.167039
296.170526
296.173168
296.1749
296.17604
296.176555
296.176438
296.175702
296.174379
296.172519
296.170198
296.167514
296.164589
296.161436
296.15819
296.154992
296.151981
296.149283
296.147152
296.142793
296.143824
295.975571
295.975994
295.976838
295.978102
295.979787
295.98189
295.984408
295.987338
295.990678
295.994422
295.998566
296.003102
296.008024
296.013324
296.01899
296.025011
296.031376
296.038067
296.04507
296.052364
296.059929
296.06774
296.075772
296.083995
296.092379
296.100887
296.109482
296.118125
296.126773
296.135379
296.143892
296.152261
296.160434
296.168359
296.17586
296.182879
296.189353
296.195215
296.200393
296.204818
296.20842
296.211378
296.213651
296.215215
296.216054
296.216162
296.215674
296.214615
296.213036
296.211012
296.208638
296.206033
296.203204
296.200287
296.197419
296.194732
296.192349
296.190474
296.18652
296.187871
295.996122
295.996572
295.997473
295.998822
296.000618
296.00286
296.005544
296.008666
296.012223
296.016208
296.020617
296.02544
296.030671
296.036298
296.042312
296.048699
296.055444
296.062533
296.069945
296.077661
296.085659
296.093913
296.102396
296.111078
296.119929
296.128914
296.137994
296.147129
296.156275
296.165388
296.174422
296.18321
296.191697
296.199825
296.207528
296.214739
296.221388
296.227407
296.232725
296.237273
296.241226
296.24454
296.247181
296.249124
296.250358
296.250889
296.250738
296.249942
296.248555
296.246765
296.244661
296.242353
296.239842
296.237257
296.23473
296.232388
296.230346
296.228788
296.225168
296.226767
296.015865
296.016336
296.017279
296.018691
296.02057
296.022915
296.025721
296.028985
296.032702
296.036864
296.041467
296.0465
296.051955
296.05782
296.064085
296.070734
296.077752
296.085122
296.092825
296.100838
296.109141
296.117707
296.126508
296.135514
296.144693
296.15401
296.163427
296.172904
296.182401
296.191755
296.200916
296.209825
296.218424
296.226648
296.234432
296.241709
296.24841
296.254463
296.259798
296.264584
296.268772
296.272321
296.275199
296.277388
296.278878
296.279679
296.279813
296.27932
296.278262
296.276716
296.274896
296.272799
296.270532
296.268213
296.265964
296.263903
296.262137
296.260835
296.25749
296.259273
296.034802
296.035288
296.036259
296.037715
296.039652
296.042068
296.044959
296.04832
296.052145
296.056429
296.061162
296.066336
296.071941
296.077964
296.084393
296.091212
296.098407
296.105959
296.113847
296.122049
296.130541
296.139297
296.148287
296.15748
296.166842
296.176337
296.185924
296.195566
296.205102
296.214483
296.223656
296.232563
296.241145
296.249338
296.257077
296.264292
296.270912
296.276866
296.282311
296.287201
296.291491
296.295146
296.298138
296.300452
296.302085
296.303046
296.303361
296.303072
296.302239
296.300941
296.299276
296.297352
296.295273
296.293151
296.291097
296.289219
296.287611
296.286421
296.283205
296.285141
296.053007
296.053503
296.054492
296.055975
296.057948
296.060407
296.06335
296.06677
296.070661
296.075015
296.079826
296.085082
296.090773
296.096887
296.103409
296.110325
296.117617
296.125266
296.133251
296.141551
296.15014
296.158992
296.168077
296.177367
296.186826
296.196423
296.206006
296.215535
296.224958
296.234223
296.243277
296.252061
296.260516
296.268579
296.276187
296.283274
296.289775
296.295626
296.30099
296.305816
296.310059
296.313683
296.316664
296.318986
296.320648
296.321661
296.322051
296.32186
296.321146
296.319984
296.318467
296.316702
296.314793
296.312846
296.310971
296.309268
296.307828
296.306792
296.303757
296.305787
296.070609
296.071109
296.072107
296.073602
296.075592
296.078072
296.081038
296.084485
296.088405
296.092791
296.097634
296.102923
296.108648
296.114795
296.121349
296.128294
296.135612
296.143284
296.151289
296.159602
296.168198
296.17705
296.186126
296.195396
296.204827
296.214273
296.223695
296.233046
296.242278
296.25134
296.260177
296.268732
296.276945
296.284754
296.292096
296.298905
296.305115
296.310876
296.31614
296.320863
296.325007
296.328541
296.331446
296.333711
296.335339
296.336343
296.336753
296.336611
296.335978
296.334929
296.333557
296.33186
296.330044
296.328209
296.326457
296.324882
296.323569
296.32265
296.319762
296.321847
296.087763
296.088263
296.089263
296.090759
296.09275
296.095231
296.098198
296.101644
296.105563
296.109947
296.114785
296.120067
296.125781
296.131914
296.13845
296.145373
296.152665
296.160306
296.168275
296.176548
296.185102
296.193908
296.20294
296.212062
296.221239
296.230429
296.239587
296.248666
296.257617
296.266387
296.274921
296.28316
296.291045
296.298513
296.305498
296.311935
296.317963
296.323538
296.328613
296.33315
296.337116
296.340485
296.343242
296.34538
296.346904
296.347831
296.348191
296.348028
296.347402
296.346387
296.345069
296.343443
296.341712
296.339973
296.338322
296.336851
296.335636
296.334808
296.33204
296.334155
296.104638
296.105136
296.106129
296.107617
296.109596
296.112062
296.11501
296.118433
296.122325
296.126676
296.131476
296.136715
296.14238
296.148456
296.154928
296.161779
296.168991
296.176543
296.184414
296.192579
296.201014
296.209692
296.218481
296.227347
296.236251
296.245155
296.254013
296.26278
296.271408
296.279844
296.288035
296.295926
296.303459
296.310576
296.317216
296.323321
296.329035
296.334309
296.339099
296.343365
296.347079
296.350217
296.352766
296.354723
296.356095
296.356901
296.357174
296.356962
296.356323
296.355336
296.353992
296.352377
296.350683
296.348999
296.347416
296.346018
296.344875
296.344112
296.341442
296.343566
296.121404
296.121895
296.122878
296.124349
296.126305
296.128742
296.131655
296.135037
296.13888
296.143176
296.147913
296.15308
296.158664
296.164651
296.171025
296.177767
296.184858
296.192278
296.200004
296.20801
296.216273
296.224667
296.233158
296.241713
296.250293
296.258857
296.267363
296.275764
296.284012
296.292056
296.299842
296.307314
296.314415
296.321086
296.327264
296.333085
296.338503
296.343477
296.347969
296.351946
296.355384
296.358264
296.360576
296.362321
296.363507
296.364158
296.364306
296.363998
296.363293
296.362266
296.360908
296.359303
296.357637
296.355996
296.354465
296.353122
296.352034
296.35132
296.348732
296.350849
296.138223
296.138707
296.139674
296.141122
296.143047
296.145445
296.148311
296.151637
296.155416
296.159638
296.164293
296.169369
296.174854
296.180732
296.186987
296.193604
296.200562
296.207843
296.215425
296.223191
296.231114
296.239161
296.247299
296.255491
296.263698
296.27188
296.279993
296.287991
296.295827
296.303452
296.310813
296.317859
296.324534
296.330784
296.336555
296.341983
296.347022
296.351631
296.355772
296.359417
296.362542
296.365132
296.367178
296.368684
296.369662
296.370134
296.370135
296.369711
296.368921
296.367837
296.36645
296.364841
296.363189
296.361577
296.360082
296.35878
296.357732
296.357053
296.354535
296.356634
296.155253
296.155727
296.156675
296.158094
296.15998
296.16233
296.165136
296.168393
296.172092
296.176224
296.180777
296.18574
296.191098
296.196837
296.202941
296.20939
296.216167
296.223251
296.230529
296.237974
296.245559
296.253252
296.261021
296.268829
296.276637
296.284406
296.292093
296.299652
296.307036
296.314196
296.32108
296.327637
296.33381
296.339544
296.344967
296.350036
296.354713
296.358963
296.362754
296.366061
296.368865
296.371155
296.372927
296.374184
296.374942
296.375225
296.375068
296.374518
296.373633
296.372483
296.371057
296.369434
296.367785
296.36619
296.364721
296.363449
296.36243
296.361777
296.35932
296.361395
296.17265
296.173113
296.174039
296.175425
296.177268
296.179563
296.182304
296.185484
296.189095
296.193127
296.197569
296.202409
296.207634
296.213229
296.219178
296.225465
296.231984
296.238715
296.245632
296.252707
296.259911
296.267212
296.274577
296.281969
296.28935
296.29668
296.303918
296.311019
296.317937
296.324627
296.331038
296.337123
296.342831
296.348112
296.353095
296.357739
296.362003
296.365855
296.369265
296.372211
296.374676
296.376651
296.378134
296.379133
296.379663
296.379749
296.379429
296.378747
296.377762
296.376539
296.375067
296.373422
296.371768
296.37018
296.368729
296.367478
296.366481
296.365847
296.363446
296.36549
296.190575
296.191027
296.191929
296.19328
296.195076
296.197311
296.199981
296.203078
296.206592
296.210516
296.214837
296.219542
296.22462
296.230059
296.235759
296.241702
296.247869
296.254234
296.260772
296.267456
296.274256
296.28114
296.288074
296.295021
296.301945
296.308805
296.31556
296.322166
296.328578
296.33475
296.340634
296.346181
296.351342
296.356236
296.360825
296.365073
296.368944
296.372411
296.37545
296.37804
296.38017
296.381834
296.383033
296.383778
296.384086
296.383985
296.383513
296.382719
296.381662
296.380327
296.37878
296.377092
296.375417
296.373825
296.37238
296.371143
296.37016
296.369538
296.367188
296.369199
296.20921
296.20965
296.210529
296.211844
296.213593
296.215771
296.21837
296.221385
296.224806
296.228627
296.232842
296.237358
296.242165
296.247247
296.252586
296.25816
296.263946
296.269921
296.276058
296.282328
296.288702
296.295146
296.301627
296.308109
296.314554
296.320922
296.327173
296.333263
296.339148
296.344781
296.350115
296.3551
296.359851
296.364332
296.368506
296.372341
296.375808
296.378882
296.381541
296.383771
296.385562
296.386911
296.387823
296.388308
296.388386
296.388087
296.387449
296.386517
296.38535
296.383932
296.382329
296.380609
296.37892
296.377326
296.375888
296.374662
296.373692
296.373081
296.370778
296.372753
296.228758
296.229186
296.230041
296.231323
296.233031
296.235163
296.237719
296.240615
296.243848
296.247409
296.251285
296.255462
296.259924
296.264652
296.269625
296.274824
296.280223
296.285799
296.291524
296.297369
296.303305
296.309299
296.315318
296.321327
296.327289
296.333165
296.338916
296.344501
296.349878
296.355004
296.359835
296.364329
296.368601
296.372613
296.376331
296.379724
296.382763
296.385426
296.387694
296.389555
296.391002
296.392033
296.392653
296.392878
296.392727
296.392229
296.391422
296.390354
296.389078
296.38758
296.385922
296.38417
296.382465
296.380868
296.379435
296.378218
296.377257
296.376653
296.374396
296.376332
296.249519
296.249905
296.250675
296.251827
296.253354
296.25525
296.257505
296.260108
296.263045
296.266304
296.26987
296.273726
296.277854
296.282236
296.28685
296.291675
296.296687
296.301859
296.307167
296.31258
296.318068
296.323601
296.329144
296.334663
296.340122
296.345483
296.350707
296.355754
296.360583
296.365152
296.369417
296.373488
296.377331
296.380912
296.384201
296.387171
296.389798
296.392063
296.393951
296.395453
296.396562
296.397282
296.397619
296.397589
296.397214
296.396523
296.395554
296.394353
296.392973
296.391396
296.389685
296.3879
296.386177
296.384574
296.383143
296.381932
296.380978
296.380379
296.378165
296.380062
296.269696
296.270052
296.270763
296.271826
296.273235
296.274985
296.277068
296.279474
296.282192
296.28521
296.288513
296.292085
296.295911
296.29997
296.304242
296.308706
296.313337
296.318112
296.323003
296.327982
296.333019
296.338084
296.343144
296.348164
296.35311
296.357944
296.362629
296.367126
296.371395
296.375394
296.379228
296.382864
296.386269
296.389416
296.392275
296.394824
296.397043
296.398916
296.400429
296.401578
296.402358
296.402776
296.402841
296.402569
296.401985
296.401119
296.400012
296.398709
296.397195
296.39552
296.39374
296.391913
296.390165
296.38855
296.387117
296.385908
296.384957
296.384361
296.382189
296.384044
296.28994
296.290271
296.29093
296.291915
296.293222
296.294845
296.296775
296.299004
296.301521
296.304315
296.30737
296.310672
296.314205
296.317949
296.321884
296.325991
296.330244
296.33462
296.339093
296.343635
296.348217
296.352809
296.35738
296.361895
296.366321
296.370622
296.374761
296.378701
296.382403
296.385967
296.38936
296.392554
296.395517
296.398226
296.400655
296.402785
296.404598
296.40608
296.407224
296.408024
296.40848
296.408599
296.408393
296.407879
296.407081
296.406032
296.404769
296.403337
296.401719
296.399967
296.398133
296.396272
296.394506
296.392882
296.391448
296.390242
296.389294
296.3887
296.38657
296.388382
296.310523
296.310828
296.311437
296.312346
296.313552
296.315049
296.316829
296.318883
296.3212
296.32377
296.326578
296.329609
296.332847
296.336274
296.33987
296.343615
296.347485
296.351458
296.355507
296.359606
296.363727
296.36784
296.371914
296.375918
296.379817
296.383579
296.387167
296.390545
296.393809
296.396929
296.399875
296.402621
296.405141
296.407411
296.40941
296.411122
296.412533
296.41363
296.414408
296.414865
296.415003
296.414829
296.414358
296.413607
296.412601
296.411373
296.409959
296.408402
296.406687
296.404862
296.402977
296.401085
296.3993
296.397669
296.396233
296.395028
296.394082
296.393489
296.391398
296.393168
296.331568
296.331848
296.332405
296.333237
296.334341
296.335709
296.337336
296.339211
296.341326
296.343667
296.346222
296.348977
296.351915
296.355018
296.358268
296.361645
296.365125
296.368687
296.372305
296.375954
296.379605
296.383232
296.386803
296.390289
296.393656
296.396872
296.399903
296.402842
296.405661
296.408331
296.410826
296.413122
296.415196
296.417029
296.418601
296.419899
296.420911
296.421628
296.422047
296.422168
296.421994
296.421536
296.420806
296.419826
296.41862
296.417219
296.415661
296.413986
296.412178
296.410282
296.408348
296.406425
296.404622
296.402981
296.401542
296.400337
296.399391
296.398798
296.396745
296.398471
296.353141
296.353394
296.353898
296.354652
296.35565
296.356887
296.358356
296.360048
296.361954
296.364062
296.366358
296.36883
296.371461
296.374234
296.37713
296.380131
296.383214
296.386357
296.389536
296.392727
296.395902
296.399036
296.402097
296.405059
296.407888
296.410555
296.413148
296.415641
296.418009
296.420226
296.422268
296.424115
296.425746
296.427144
296.428294
296.429184
296.429804
296.43015
296.43022
296.430014
296.429541
296.42881
296.427837
296.426644
296.425258
296.423708
296.422034
296.420219
296.418301
296.416324
296.414333
296.412373
296.410546
296.408892
296.407447
296.40624
296.405292
296.404696
296.402681
296.404363
296.375275
296.375501
296.375951
296.376623
296.377513
296.378615
296.379923
296.381427
296.383119
296.384987
296.387019
296.389201
296.391518
296.393953
296.396489
296.399106
296.401784
296.404501
296.407235
296.409962
296.412655
296.415289
296.417837
296.42027
296.422559
296.424791
296.426942
296.428987
296.430903
296.432668
296.43426
296.435661
296.436853
296.437823
296.438558
296.439048
296.439286
296.439268
296.438996
296.438473
296.437706
296.436707
296.435494
296.434088
296.432515
296.430805
296.428995
296.427067
296.425061
296.423018
296.42098
296.41899
296.417145
296.415482
296.414032
296.412822
296.411872
296.411275
296.409297
296.410933
296.397988
296.398186
296.398581
296.399169
296.399948
296.400911
296.402053
296.403364
296.404837
296.406459
296.408219
296.410104
296.412099
296.414188
296.416355
296.41858
296.420845
296.423128
296.425409
296.427664
296.429869
296.432001
296.434033
296.435938
296.437802
296.4396
296.441311
296.442911
296.44438
296.445698
296.446847
296.447811
296.448575
296.449126
296.449456
296.449556
296.449422
296.449053
296.448451
296.44762
296.44657
296.445315
296.443871
296.442261
296.44051
296.438648
296.436711
296.434679
296.432591
296.430486
296.428405
296.426386
296.424524
296.42285
296.421395
296.420182
296.419229
296.418628
296.416686
296.418277
296.421285
296.421455
296.421792
296.422294
296.422958
296.423778
296.424748
296.42586
296.427105
296.428473
296.429951
296.431528
296.433189
296.434918
296.436699
296.438515
296.440346
296.442172
296.443972
296.445725
296.447406
296.448991
296.45056
296.45209
296.453562
296.454954
296.456248
296.457425
296.458466
296.459355
296.460078
296.46062
296.460971
296.46112
296.46106
296.460786
296.460296
296.459591
296.458675
296.457554
296.45624
296.454746
296.453092
296.4513
296.449396
296.447412
296.445331
296.443184
296.441006
296.438835
296.436706
296.434657
296.432774
296.431089
296.429627
296.428409
296.427451
296.426846
296.42494
296.426484
296.44516
296.4453
296.445577
296.445991
296.446537
296.44721
296.448003
296.44891
296.449922
296.451028
296.452217
296.453477
296.454793
296.456152
296.457537
296.458931
296.460315
296.46167
296.462975
296.464209
296.465448
296.466673
296.467863
296.469002
296.47007
296.47105
296.471925
296.472679
296.473296
296.473763
296.474067
296.474198
296.474146
296.473905
296.473468
296.472834
296.472001
296.470973
296.469754
296.468354
296.466784
296.465059
296.463198
296.461223
296.45916
296.45704
296.454843
296.452604
296.450354
296.448129
296.445963
296.443889
296.441992
296.440297
296.43883
296.437608
296.436646
296.436037
296.434165
296.435662
296.469579
296.469688
296.469906
296.470229
296.470654
296.471176
296.47179
296.472487
296.47326
296.474099
296.474993
296.475929
296.476896
296.477877
296.478858
296.479823
296.480752
296.481627
296.482523
296.483422
296.484307
296.485161
296.485968
296.486711
296.487375
296.487943
296.488402
296.488738
296.488939
296.488993
296.488889
296.488621
296.48818
296.487561
296.486762
296.485782
296.484622
296.483286
296.481781
296.480117
296.478306
296.476364
296.47431
296.472166
296.469958
296.467713
296.465415
296.463094
296.460781
296.458509
296.45631
296.454216
296.452305
296.450602
296.449129
296.447903
296.446935
296.446321
296.444482
296.44593
296.494445
296.494523
296.494678
296.494908
296.495209
296.495577
296.496006
296.496489
296.497019
296.497586
296.49818
296.49879
296.499404
296.500008
296.500587
296.501122
296.501688
296.502269
296.502849
296.503414
296.503948
296.504437
296.504866
296.505221
296.505489
296.505656
296.505711
296.505643
296.505442
296.505097
296.504603
296.503952
296.503139
296.502162
296.501021
296.499715
296.498248
296.496626
296.494857
296.492952
296.490925
296.488792
296.486574
296.484293
296.481975
296.479603
296.477205
296.474807
296.472441
296.470137
296.467923
296.46583
296.463886
296.462159
296.460668
296.459427
296.458446
296.457821
296.456003
296.457398
296.519532
296.519576
296.519662
296.519789
296.519953
296.52015
296.520376
296.520624
296.520884
296.521147
296.5214
296.521629
296.521907
296.522218
296.522551
296.522892
296.52323
296.523554
296.523852
296.524112
296.524321
296.524468
296.524542
296.524531
296.524424
296.524212
296.523885
296.523433
296.52285
296.52213
296.521265
296.520253
296.51909
296.517776
296.516312
296.5147
296.512945
296.511054
296.509037
296.506905
296.504672
296.502356
296.499976
296.497554
296.495114
296.49264
296.490158
296.487695
296.485279
296.482939
296.480701
296.478594
296.476642
296.474911
296.473417
296.472173
296.471187
296.470555
296.468763
296.470104
296.5445
296.544499
296.544495
296.544485
296.544462
296.544419
296.544431
296.544487
296.544579
296.544699
296.544838
296.54499
296.545147
296.545302
296.545446
296.54557
296.545665
296.545723
296.545734
296.545687
296.545575
296.545387
296.545115
296.544749
296.544282
296.543706
296.543013
296.542198
296.541254
296.540178
296.538966
296.537615
296.536126
296.534499
296.532737
296.530843
296.528825
296.526691
296.524451
296.522118
296.519706
296.517234
296.514722
296.512191
296.509626
296.507049
296.504486
296.50196
296.499498
296.497125
296.494868
296.492749
296.490791
296.489057
296.487561
296.486315
296.485324
296.484685
296.482918
296.484205
296.569271
296.569279
296.569294
296.569315
296.569343
296.569374
296.56941
296.569447
296.569482
296.569511
296.569529
296.569532
296.569514
296.569468
296.569388
296.569268
296.569099
296.568875
296.568589
296.568232
296.567798
296.567279
296.566668
296.565959
296.565146
296.564222
296.563182
296.562022
296.560739
296.55933
296.557794
296.55613
296.554339
296.552424
296.550388
296.548239
296.545981
296.543626
296.541185
296.538669
296.536096
296.533481
296.530846
296.528209
296.525557
296.52291
296.520294
296.517731
296.515247
296.512865
296.510608
296.5085
296.506561
296.50481
296.503299
296.502038
296.501032
296.500378
296.498629
296.499858
296.596085
296.596076
296.596059
296.596033
296.595996
296.595945
296.59588
296.595796
296.59569
296.59556
296.595399
296.595205
296.594971
296.594693
296.594366
296.593982
296.593538
296.593026
296.592441
296.591777
296.591027
296.590188
296.589252
296.588215
296.587073
296.585822
296.584458
296.582978
296.581381
296.579666
296.577834
296.575884
296.573821
296.571647
296.569369
296.566993
296.564527
296.561981
296.559369
296.556702
296.553998
296.551274
296.548549
296.545809
296.543072
296.540361
296.537696
296.535099
296.532594
296.530201
296.527941
296.525836
296.523903
296.522158
296.520614
296.519316
296.518266
296.517559
296.515783
296.516908
296.623933
296.623905
296.62385
296.623765
296.623651
296.623504
296.623324
296.623107
296.622851
296.622552
296.622207
296.621812
296.621363
296.620855
296.620285
296.619647
296.618937
296.61815
296.617282
296.616327
296.615283
296.614144
296.612907
296.611568
296.610124
296.608574
296.606914
296.605145
296.603265
296.601276
296.599178
296.596975
296.594671
296.59227
296.589779
296.587205
296.584558
296.581848
296.579089
296.576293
296.573476
296.570655
296.56785
296.565044
296.562257
296.55951
296.556822
296.554216
296.551711
296.549327
296.547085
296.545001
296.543094
296.541377
296.539862
296.538556
296.537497
296.536781
296.535028
296.536098
296.652605
296.652559
296.652466
296.652326
296.652138
296.651901
296.651611
296.651269
296.650871
296.650414
296.649896
296.649314
296.648665
296.647945
296.64715
296.646278
296.645325
296.644287
296.643161
296.641944
296.640632
296.639223
296.637715
296.636106
296.634394
296.632578
296.630657
296.628633
296.626506
296.624278
296.621952
296.619533
296.617024
296.614432
296.611765
296.609031
296.60624
296.603404
296.600535
296.597647
296.594757
296.591881
296.589006
296.586148
296.583325
296.580556
296.577862
296.575259
296.572768
296.570407
296.568193
296.566143
296.564272
296.562592
296.561113
296.559842
296.558782
296.558062
296.556336
296.557353
296.682131
296.682068
296.681942
296.681752
296.681497
296.681177
296.68079
296.680334
296.679808
296.67921
296.678537
296.677787
296.676959
296.676048
296.675054
296.673974
296.672805
296.671544
296.67019
296.668741
296.667195
296.665551
296.663807
296.661963
296.660018
296.657973
296.65583
296.653589
296.651252
296.648824
296.646309
296.64371
296.641035
296.63829
296.635484
296.632626
296.629726
296.626797
296.623852
296.620904
296.617971
296.615038
296.612121
296.609238
296.606404
296.603638
296.600957
296.598379
296.595922
296.593601
296.591433
296.589434
296.587615
296.58599
296.584565
296.583348
296.582339
296.581641
296.579935
296.580896
296.712632
296.712555
296.712399
296.712165
296.711852
296.71146
296.710986
296.710431
296.709793
296.709071
296.708262
296.707367
296.706382
296.705307
296.70414
296.702879
296.701523
296.700071
296.698522
296.696875
296.695129
296.693284
296.69134
296.689298
296.687158
296.684923
296.682594
296.680174
296.677667
296.675076
296.672408
296.669667
296.66686
296.663996
296.661082
296.658129
296.655148
296.652151
296.64915
296.646159
296.643194
296.640242
296.637318
296.634438
296.631619
296.628876
296.626228
296.62369
296.621277
296.619007
296.616892
296.614948
296.613185
296.611614
296.610243
296.609076
296.608115
296.607465
296.605838
296.60677
296.744277
296.744187
296.744006
296.743734
296.743372
296.742918
296.742371
296.741731
296.740998
296.74017
296.739247
296.738228
296.737112
296.735897
296.734585
296.733173
296.731661
296.73005
296.728339
296.726527
296.724617
296.722608
296.720501
296.718299
296.716003
296.713616
296.711141
296.708582
296.705943
296.703229
296.700446
296.697601
296.694701
296.691755
296.688772
296.685762
296.682736
296.679706
296.676686
296.673689
296.670703
296.667742
296.664821
296.661953
296.659156
296.656443
296.65383
296.651331
296.648963
296.646737
296.644668
296.642766
296.641044
296.639509
296.638167
296.637022
296.636076
296.635436
296.633842
296.634722
296.777273
296.777172
296.776971
296.776668
296.776265
296.77576
296.775154
296.774445
296.773634
296.772721
296.771704
296.770585
296.769362
296.768036
296.766606
296.765073
296.763438
296.7617
296.759861
296.757921
296.755883
296.753747
296.751517
296.749193
296.74678
296.744281
296.7417
296.739041
296.73631
296.733512
296.730654
296.727744
296.724788
296.721797
296.71878
296.715746
296.712708
296.709678
296.706667
296.703665
296.700685
296.697739
296.694841
296.692005
296.689246
296.686577
296.684011
296.681563
296.679245
296.677071
296.675051
296.673195
296.671514
296.670014
296.668701
296.667577
296.666643
296.666012
296.664448
296.665274
296.81187
296.811762
296.811544
296.811218
296.810783
296.810239
296.809586
296.808824
296.807954
296.806975
296.805887
296.804691
296.803388
296.801978
296.800461
296.798838
296.797111
296.795281
296.79335
296.791318
296.789189
296.786966
296.78465
296.782245
296.779755
296.777184
296.774537
296.771819
296.769036
296.766195
296.763302
296.760365
296.757392
296.754393
296.751377
296.748355
296.745338
296.742337
296.739343
296.736365
296.733418
296.730513
296.727662
296.724879
296.722177
296.719569
296.717066
296.714681
296.712426
296.710312
296.708349
296.706546
296.704911
296.703451
296.702169
296.701068
296.700147
296.699527
296.697993
296.698765
296.848365
296.848251
296.848022
296.847679
296.847222
296.84665
296.845965
296.845167
296.844255
296.843231
296.842094
296.840847
296.83949
296.838023
296.836449
296.834768
296.832983
296.831095
296.829106
296.82702
296.824838
296.822565
296.820203
296.817756
296.81523
296.812628
296.809956
296.80722
296.804426
296.801581
296.798692
296.795767
296.792815
296.789845
296.786866
296.78389
296.780926
296.777966
296.775018
296.772095
296.769208
296.766369
296.76359
296.760881
296.758256
296.755725
296.753301