/*--------------------------------*- C++ -*----------------------------------*\
  =========                 |
  \\      /  F ield         | OpenFOAM: The Open Source CFD Toolbox
   \\    /   O peration     | Website:  https://openfoam.org
    \\  /    A nd           | Version:  11
     \\/     M anipulation  |
\*---------------------------------------------------------------------------*/
FoamFile
{
    format      ascii;
    class       volScalarField;
    location    "1.99414e-05";
    object      thermalPhaseChange:Tf.gas_liquid;
}
// * * * * * * * * * * * * * * * * * * * * * * * * * * * * * * * * * * * * * //

dimensions      [0 0 0 1 0 0 0];

internalField   nonuniform List<scalar> 
120000
(
293.051487
293.051505
293.051541
293.051596
293.051669
293.05176
293.051869
293.051998
293.052144
293.05231
293.052495
293.0527
293.052924
293.053168
293.053433
293.053719
293.054027
293.054357
293.05471
293.055086
293.055488
293.055914
293.056367
293.056848
293.057357
293.057895
293.058464
293.059065
293.059699
293.060367
293.061071
293.061812
293.062591
293.063408
293.064267
293.065166
293.066108
293.067094
293.068122
293.069194
293.07031
293.071469
293.072668
293.073907
293.07518
293.076483
293.077808
293.079145
293.08048
293.081796
293.083069
293.084268
293.085354
293.08628
293.086995
293.087444
293.087583
293.087399
293.086637
293.087164
293.056166
293.056206
293.056285
293.056404
293.056562
293.056759
293.056996
293.057273
293.057589
293.057945
293.058341
293.058777
293.059253
293.05977
293.060328
293.060927
293.061568
293.062251
293.062977
293.063746
293.064558
293.065414
293.066315
293.06726
293.06825
293.069285
293.070364
293.071488
293.072655
293.073864
293.075114
293.076402
293.077727
293.079085
293.080471
293.081882
293.08331
293.084749
293.08619
293.087623
293.089037
293.090418
293.091751
293.093018
293.0942
293.095273
293.096213
293.096995
293.097588
293.097966
293.0981
293.097967
293.097545
293.096826
293.095819
293.094558
293.093254
293.091848
293.08992
293.089699
293.061046
293.061101
293.06121
293.061374
293.061592
293.061866
293.062195
293.062581
293.063022
293.063521
293.064077
293.06469
293.06536
293.066089
293.066875
293.067721
293.068625
293.069588
293.070611
293.071693
293.072834
293.074035
293.075295
293.076614
293.07799
293.079423
293.080912
293.082454
293.084047
293.085688
293.087373
293.089097
293.090855
293.09264
293.094445
293.096261
293.098075
293.099876
293.10165
293.103379
293.105047
293.106633
293.108114
293.109468
293.110666
293.111682
293.112488
293.113055
293.113351
293.113349
293.113026
293.112368
293.111369
293.11004
293.10856
293.106815
293.105046
293.103357
293.101343
293.100724
293.066372
293.066433
293.066555
293.066739
293.066987
293.067301
293.067683
293.068134
293.068655
293.069249
293.069915
293.070654
293.071467
293.072354
293.073316
293.074352
293.075462
293.076647
293.077907
293.079241
293.080648
293.082129
293.083682
293.085307
293.087001
293.088763
293.090591
293.092482
293.094433
293.096437
293.098491
293.100587
293.102717
293.104874
293.107046
293.109222
293.111389
293.113531
293.115631
293.11767
293.119627
293.121481
293.123204
293.124773
293.126159
293.127332
293.128262
293.128923
293.130104
293.130132
293.129769
293.129004
293.127833
293.125589
293.123865
293.122035
293.120208
293.118501
293.116488
293.116026
293.07202
293.072075
293.072184
293.072355
293.072592
293.072901
293.073287
293.073755
293.074307
293.074946
293.075674
293.07649
293.077397
293.078393
293.079479
293.080654
293.081919
293.083272
293.084713
293.086241
293.087857
293.089558
293.091344
293.093212
293.09516
293.097185
293.099285
293.101456
293.103693
293.10599
293.108341
293.110738
293.113174
293.115637
293.118117
293.1206
293.123071
293.125516
293.127916
293.130251
293.132502
293.134645
293.136656
293.138507
293.140997
293.142449
293.143606
293.14444
293.144923
293.145027
293.144732
293.144024
293.142948
293.141532
293.139875
293.137246
293.135483
293.133874
293.131835
293.131931
293.077833
293.077864
293.07793
293.078046
293.078224
293.078479
293.078822
293.07926
293.079798
293.080441
293.081188
293.082042
293.083001
293.084066
293.085235
293.086508
293.087884
293.08936
293.090937
293.092612
293.094385
293.096253
293.098215
293.100268
293.102409
293.104635
293.106943
293.109328
293.111784
293.114306
293.116887
293.119517
293.122187
293.124889
293.127609
293.130335
293.133051
293.139228
293.141953
293.144603
293.147156
293.149585
293.149025
293.151139
293.153015
293.154622
293.155928
293.156903
293.157516
293.157743
293.157561
293.156998
293.156062
293.154834
293.15336
293.151718
293.150014
293.147677
293.145591
293.146453
293.083676
293.083662
293.083647
293.083662
293.083734
293.08389
293.084147
293.084518
293.085009
293.085623
293.086361
293.087222
293.088205
293.089307
293.090528
293.091864
293.093315
293.094877
293.096549
293.09833
293.100215
293.102205
293.104295
293.106482
293.108765
293.111138
293.113597
293.116136
293.118751
293.121435
293.124181
293.12698
293.129823
293.136193
293.13921
293.142228
293.145231
293.148203
293.151126
293.153979
293.157169
293.159799
293.162228
293.164426
293.166362
293.16453
293.16595
293.167039
293.16777
293.168116
293.168058
293.167625
293.166823
293.165733
293.164401
293.162899
293.161331
293.159909
293.156947
293.158632
293.089446
293.089363
293.089229
293.089098
293.089024
293.089045
293.089187
293.089466
293.089886
293.090451
293.091158
293.092005
293.092989
293.094106
293.095353
293.096726
293.098224
293.099842
293.101578
293.103429
293.105392
293.107464
293.109642
293.111922
293.1143
293.116772
293.119333
293.121978
293.124701
293.127496
293.133802
293.136852
293.139944
293.143067
293.146206
293.149347
293.152476
293.155575
293.158626
293.162042
293.164919
293.167621
293.170121
293.172388
293.17439
293.176097
293.177477
293.178498
293.175783
293.176206
293.176233
293.17589
293.175184
293.174196
293.172969
293.171572
293.170107
293.168807
293.165748
293.168177
293.095069
293.094895
293.094606
293.094295
293.094044
293.093907
293.093918
293.09409
293.094428
293.094931
293.095594
293.096413
293.097383
293.098497
293.099752
293.101143
293.102665
293.104315
293.106089
293.107983
293.109993
293.112116
293.114349
293.116687
293.119125
293.12166
293.124286
293.126997
293.133236
293.136242
293.139312
293.142434
293.145598
293.148791
293.152002
293.155215
293.158415
293.161586
293.165143
293.168185
293.171078
293.173796
293.176311
293.178592
293.180608
293.182329
293.183722
293.184756
293.185406
293.182256
293.182327
293.182023
293.181411
293.180515
293.17938
293.178075
293.176698
293.175503
293.172375
293.175406
293.100496
293.100213
293.099744
293.099231
293.098788
293.098485
293.098357
293.098418
293.098668
293.099103
293.099716
293.100498
293.101443
293.102543
293.103791
293.105183
293.106712
293.108374
293.110165
293.11208
293.114115
293.116266
293.118529
293.120899
293.123371
293.12594
293.128601
293.134881
293.137853
293.140896
293.144
293.147155
293.150351
293.153575
293.156815
293.160058
293.163287
293.166919
293.170063
293.173083
293.175953
293.178648
293.181139
293.183398
293.185393
293.187094
293.188472
293.189497
293.190145
293.190392
293.186911
293.186634
293.18606
293.185214
293.18414
293.182905
293.181605
293.180508
293.178175
293.180851
293.105704
293.105301
293.10464
293.103918
293.103281
293.102813
293.102549
293.1025
293.102662
293.103027
293.103584
293.104322
293.105234
293.106309
293.10754
293.10892
293.110443
293.112104
293.113896
293.115816
293.117858
293.120017
293.122289
293.124668
293.127149
293.133189
293.136005
293.138907
293.141885
293.144932
293.148039
293.151194
293.154386
293.157604
293.160835
293.164065
293.167274
293.170892
293.174002
293.176982
293.179809
293.182457
293.184901
293.18711
293.189058
293.190715
293.192051
293.193043
293.193665
293.193896
293.190275
293.189999
293.189436
293.188613
293.187572
293.186379
293.185126
293.184091
293.181748
293.184739
293.110688
293.110164
293.109313
293.108388
293.107566
293.106941
293.106547
293.106392
293.106467
293.106761
293.10726
293.107952
293.108825
293.109869
293.111075
293.112435
293.113942
293.115589
293.117371
293.119282
293.121317
293.12347
293.125736
293.12811
293.134087
293.136805
293.139613
293.142504
293.14547
293.148502
293.151592
293.154727
293.157898
293.161093
293.164299
293.167499
293.171118
293.174257
293.177288
293.180189
293.182938
293.185509
293.187875
293.190009
293.191883
293.19347
293.194744
293.195679
293.196253
293.196447
293.196273
293.192422
293.191853
293.191035
293.19001
293.188843
293.187625
293.186637
293.184292
293.187504
293.115463
293.114825
293.113798
293.112687
293.111695
293.110925
293.11041
293.110154
293.110145
293.110369
293.110809
293.111451
293.112281
293.113288
293.114462
293.115794
293.117276
293.118901
293.120662
293.122553
293.124568
293.126702
293.132357
293.134851
293.137449
293.140143
293.142925
293.145789
293.148726
293.151727
293.154782
293.157881
293.161015
293.16417
293.167333
293.170922
293.174056
293.177102
293.18004
293.182847
293.185502
293.187977
293.190249
293.19229
293.194074
293.195575
293.196768
293.197631
293.198141
293.198282
293.19807
293.194136
293.193553
293.192733
293.191718
293.190571
293.189381
293.188432
293.186095
293.189461
293.120059
293.119322
293.118141
293.116865
293.115722
293.11482
293.114193
293.113842
293.113752
293.113907
293.114287
293.114876
293.11566
293.116626
293.117763
293.119061
293.120511
293.122106
293.123839
293.125702
293.12769
293.133232
293.135589
293.138053
293.140618
293.143277
293.146022
293.148846
293.151739
293.154693
293.157698
293.160744
293.163819
293.16691
293.170003
293.173524
293.176574
293.17953
293.182373
293.185081
293.187633
293.190005
293.192171
293.194105
293.195784
293.197181
293.198273
293.199037
293.199453
293.199527
293.199255
293.195291
293.194707
293.193894
293.192894
293.19177
293.190609
293.189696
293.187376
293.190848
293.124515
293.123697
293.122388
293.120971
293.119696
293.118675
293.117945
293.117504
293.117336
293.117421
293.11774
293.118275
293.11901
293.11993
293.121025
293.122284
293.123697
293.125256
293.126954
293.128783
293.1342
293.136405
293.138724
293.141148
293.143671
293.146285
293.148984
293.151758
293.154599
293.157498
293.160446
293.163432
293.166444
293.16947
293.17293
293.175944
293.178882
293.181727
293.184458
293.187054
293.189493
293.191752
293.193806
293.195631
293.197202
293.198499
293.199496
293.200174
293.200512
293.200523
293.200202
293.196187
293.195578
293.194754
293.193755
293.192644
293.191504
293.190621
293.188319
293.191866
293.128874
293.127994
293.126583
293.12505
293.12366
293.122534
293.121708
293.121181
293.120936
293.120953
293.121209
293.121686
293.122368
293.123239
293.124287
293.125501
293.12687
293.128386
293.133431
293.135345
293.137385
293.139544
293.141814
293.144189
293.146661
293.149222
293.151864
293.154579
293.157358
293.160192
293.163071
293.165983
293.168916
293.171856
293.175235
293.178151
293.180986
293.183724
293.186344
293.188828
293.191153
293.193298
293.195238
293.196952
293.198417
293.199612
293.200514
293.201105
293.201367
293.201313
293.200939
293.196879
293.196242
293.195402
293.194401
293.193298
293.192177
293.191319
293.189038
293.192639
293.133178
293.132254
293.130766
293.12914
293.127652
293.126431
293.125516
293.124908
293.124588
293.124535
293.124728
293.125147
293.125773
293.126592
293.12759
293.128756
293.130079
293.13498
293.136714
293.13858
293.140571
293.142679
293.144897
293.147217
293.149632
293.152134
293.154714
293.157365
293.160078
293.162843
293.16565
293.168486
293.171341
293.17464
293.177499
293.180294
293.183009
293.185625
293.188125
293.190487
293.192691
293.194715
293.196536
293.198135
293.19949
293.200581
293.201387
293.201889
293.202072
293.201953
293.201526
293.197427
293.19676
293.195904
293.194899
293.193804
293.192699
293.191865
293.189606
293.193249
293.137462
293.136511
293.134969
293.133271
293.1317
293.130394
293.129396
293.128709
293.128315
293.128193
293.128321
293.128677
293.129245
293.130007
293.130951
293.135452
293.13684
293.138377
293.140055
293.141865
293.143799
293.145849
293.148007
293.150265
293.152616
293.155051
293.157563
293.160144
293.162781
293.165466
293.168188
293.170935
293.173695
293.176904
293.179656
293.182339
293.184939
293.187436
293.189814
293.192054
293.194134
293.196034
293.197735
293.199216
293.200458
293.201442
293.202147
293.202558
293.202662
293.202477
293.201996
293.197867
293.197173
293.196302
293.195295
293.194209
293.193122
293.192311
293.190077
293.19375
293.141757
293.140793
293.139218
293.137465
293.135826
293.134444
293.13337
293.132607
293.13214
293.131948
293.132009
293.132303
293.132809
293.136881
293.137879
293.139048
293.140376
293.141853
293.14347
293.145219
293.147091
293.149078
293.151172
293.153364
293.155647
293.158013
293.160454
293.162959
293.165518
293.168122
293.17076
293.173421
293.176536
293.179213
293.181836
293.18439
293.186858
293.189225
293.191472
293.193579
293.195527
293.197296
293.198868
293.200223
293.201341
293.202204
293.202793
293.203093
293.203116
293.202845
293.202338
293.198206
293.197498
293.196622
293.19562
293.194548
293.193482
293.192697
293.190488
293.194188
293.146084
293.145119
293.143528
293.141738
293.140043
293.138595
293.137448
293.136613
293.136076
293.135813
293.139104
293.139436
293.139982
293.140727
293.141656
293.142757
293.144018
293.14543
293.146981
293.148664
293.150468
293.152387
293.15441
293.156532
293.158743
293.161034
293.163397
293.165821
293.168297
293.170815
293.173366
293.176377
293.178966
293.181514
293.184008
293.186431
293.188769
293.191004
293.193118
293.195092
293.196909
293.19855
293.199997
293.201231
293.202234
293.202988
293.203476
293.203685
293.20363
293.203295
293.202737
293.19858
293.197845
293.196956
293.195952
293.194889
293.19384
293.193077
293.190893
293.194618
293.150451
293.1495
293.147916
293.146109
293.144373
293.142865
293.144859
293.144055
293.143541
293.143302
293.143318
293.143569
293.144037
293.144706
293.145562
293.14659
293.14778
293.14912
293.150601
293.152211
293.153943
293.155787
293.157736
293.159781
293.161911
293.164119
293.166394
293.168727
293.171109
293.173529
293.175977
293.17889
293.181365
293.183794
293.186165
293.188463
293.190673
293.192778
293.194761
293.196604
293.198292
293.199806
293.201131
293.202246
293.203136
293.203784
293.204175
293.204296
293.204166
293.203767
293.203157
293.198973
293.198211
293.197307
293.1963
293.195244
293.194211
293.19347
293.19131
293.195059
293.158226
293.157312
293.155775
293.154008
293.152299
293.150808
293.149602
293.148697
293.148087
293.147756
293.147684
293.14785
293.148238
293.148828
293.149607
293.15056
293.151674
293.152939
293.154344
293.155879
293.157536
293.159303
293.161172
293.163135
293.165181
293.167302
293.169488
293.17173
293.174018
293.176343
293.179141
293.181513
293.183853
293.186148
293.188383
293.190544
293.192617
293.194584
293.19643
293.198138
293.199693
293.201079
293.202277
293.203272
293.204046
293.204587
293.204879
293.204912
293.204708
293.204246
293.203587
293.199378
293.198591
293.197674
293.196666
293.195619
293.194603
293.193883
293.191746
293.195522
293.163365
293.162446
293.160889
293.15908
293.15731
293.155742
293.154453
293.153462
293.152767
293.152351
293.152196
293.152281
293.152588
293.153099
293.153799
293.154674
293.155711
293.156899
293.158226
293.159682
293.161258
293.162943
293.164728
293.166604
293.168562
293.170592
293.172686
293.174834
293.177025
293.179698
293.181956
293.184192
293.186395
293.188551
293.190647
293.192667
293.194598
293.196423
293.198128
293.199697
293.201115
293.202365
293.20343
293.204295
293.204945
293.205364
293.20554
293.20549
293.205189
293.20469
293.204
293.199782
293.19898
293.198058
293.197055
293.19602
293.195023
293.194327
293.192213
293.196017
293.16854
293.16763
293.166075
293.164248
293.162437
293.160811
293.159452
293.158385
293.157609
293.157112
293.156875
293.156878
293.157104
293.157534
293.158154
293.158949
293.159905
293.161011
293.162256
293.163628
293.165117
293.166715
293.168411
293.170197
293.172062
293.173998
293.175995
293.178043
293.180582
293.182715
293.184836
293.186934
293.188997
293.191013
293.192967
293.194844
293.196632
293.198316
293.199881
293.201314
293.202596
293.203715
293.204653
293.205397
293.205931
293.206244
293.206324
293.20619
293.205817
293.205258
293.204523
293.200278
293.199452
293.198519
293.197515
293.19649
293.195509
293.194834
293.192741
293.196578
293.173823
293.172931
293.171392
293.169561
293.167723
293.16605
293.164628
293.163489
293.162636
293.162059
293.16174
293.161661
293.161803
293.16215
293.162686
293.163395
293.164266
293.165286
293.166442
293.167725
293.169125
293.17063
293.172233
293.173922
293.17569
293.177526
293.179421
293.181816
293.183813
293.185807
293.187789
293.189747
293.191668
293.193541
293.19535
293.197083
293.198728
293.200271
293.201697
293.202992
293.204141
293.205129
293.205942
293.206566
293.206989
293.207198
293.207185
293.206969
293.206525
293.205907
293.205125
293.200848
293.199999
293.199054
293.198049
293.197032
293.196066
293.195412
293.193337
293.197211
293.179249
293.178381
293.176866
293.175044
293.173189
293.171477
293.169999
293.168793
293.167865
293.167207
293.166805
293.16664
293.166696
293.166956
293.167403
293.168024
293.168804
293.169733
293.170797
293.171986
293.17329
293.174698
293.176201
293.17779
293.179455
293.181187
293.183429
293.185278
293.187134
293.188987
293.190826
293.19264
293.194416
293.196141
293.197804
293.199392
293.200893
293.202293
293.203577
293.204733
293.205746
293.206602
293.207289
293.207793
293.208103
293.208209
293.208103
293.207807
293.207293
293.206619
293.205794
293.201484
293.200614
293.199658
293.198653
293.197645
293.196696
293.196061
293.194003
293.197921
293.184834
293.183993
293.182512
293.180708
293.178846
293.177104
293.175576
293.174305
293.173303
293.172566
293.172079
293.171828
293.171795
293.171964
293.172319
293.172847
293.173533
293.174365
293.175332
293.176422
293.177625
293.178931
293.18033
293.181812
293.183369
293.185449
293.18714
293.188846
293.190559
293.192267
293.193959
293.195624
293.19725
293.198826
293.20034
293.201781
293.203133
293.204386
293.205525
293.206537
293.207409
293.208127
293.20868
293.209055
293.209242
293.20923
293.20904
293.208638
293.208077
293.207364
293.206508
293.202175
293.201291
293.200331
293.199331
293.198336
293.197404
293.196791
293.194748
293.198715
293.190588
293.189778
293.188337
293.18656
293.184702
293.182937
293.181366
293.180036
293.178963
293.178147
293.177576
293.177237
293.177113
293.177188
293.177448
293.177879
293.178466
293.179198
293.180063
293.181049
293.182146
293.183345
293.184634
293.186006
293.187915
293.189436
293.190982
293.192542
293.194107
293.195665
293.197205
293.198719
293.200195
293.201621
293.202985
293.204276
293.20548
293.206586
293.20758
293.20845
293.209185
293.209771
293.210198
293.210454
293.21053
293.210417
293.210138
293.209658
293.209032
293.208266
293.20737
293.202997
293.202093
293.201125
293.200126
293.199141
293.198224
293.197632
293.195599
293.199625
293.196523
293.195747
293.194353
293.192612
293.190766
293.188988
293.187381
293.185997
293.184858
293.183965
293.183311
293.182883
293.182666
293.182647
293.182809
293.18314
293.183625
293.184253
293.185012
293.185891
293.186879
293.187965
293.189141
293.19087
293.192211
293.193584
293.194979
293.196387
293.197797
293.199202
293.200589
293.201949
293.203271
293.204543
293.205753
293.206891
293.207945
293.208901
293.20975
293.210478
293.211075
293.211529
293.211829
293.211968
293.211934
293.211722
293.211356
293.2108
293.21011
293.209292
293.208356
293.203938
293.203016
293.202039
293.201041
293.200065
293.199164
293.19859
293.196567
293.200658
293.202651
293.201913
293.20057
293.198874
293.197051
293.19527
293.193635
293.192204
293.191003
293.190037
293.189301
293.188786
293.188478
293.188363
293.188428
293.188658
293.189041
293.189565
293.190219
293.19099
293.19187
293.193327
293.194412
293.195547
293.196725
293.197934
293.199167
293.200413
293.201663
293.202907
293.204134
293.205334
293.206495
293.207607
293.208659
293.209639
293.210537
293.211339
293.212037
293.212617
293.21307
293.213385
293.213551
293.213561
293.213405
293.213106
293.212624
293.212012
293.211273
293.210415
293.209451
293.20499
293.204054
293.203073
293.20208
293.201116
293.20023
293.199677
293.19766
293.201827
293.208987
293.208288
293.207003
293.205359
293.203569
293.201795
293.200143
293.198673
293.197416
293.196381
293.195567
293.194967
293.194568
293.194358
293.194323
293.194452
293.194732
293.195151
293.195698
293.19685
293.197642
293.198503
293.199424
293.200396
293.201411
293.202459
293.203529
293.204613
293.2057
293.206781
293.207845
293.208881
293.20988
293.210831
293.211723
293.212545
293.213287
293.213937
293.214486
293.214922
293.215236
293.215419
293.215461
293.215354
293.215091
293.214697
293.21413
293.213445
293.212645
293.211739
293.210737
293.206218
293.205264
293.204276
293.203284
293.202329
293.201457
293.200923
293.198909
293.203162
293.215545
293.214888
293.213665
293.212084
293.210338
293.208582
293.206923
293.205423
293.204118
293.20302
293.202132
293.201448
293.200959
293.200653
293.20052
293.200546
293.200721
293.201535
293.201996
293.202545
293.203173
293.203871
293.20463
293.20544
293.206291
293.207174
293.20808
293.208998
293.209919
293.210834
293.211732
293.212603
293.213437
293.214224
293.214954
293.215617
293.216202
293.216699
293.217098
293.217391
293.217567
293.217618
293.217536
293.217315
293.216948
293.216461
293.215811
293.215054
293.214194
293.21324
293.212202
293.207618
293.206647
293.205651
293.20466
293.203713
293.202855
293.20234
293.200326
293.204677
293.222353
293.22174
293.220586
293.219075
293.217385
293.215661
293.214006
293.212488
293.211143
293.209989
293.209032
293.208269
293.207692
293.207292
293.207058
293.207502
293.207595
293.207796
293.208093
293.208478
293.208941
293.209474
293.210066
293.210708
293.21139
293.212104
293.21284
293.213588
293.214339
293.215083
293.215811
293.216513
293.217178
293.217798
293.218363
293.218862
293.219286
293.219626
293.219872
293.220016
293.220048
293.21996
293.219746
293.219399
293.218942
293.21833
293.217615
293.216802
293.215895
293.214902
293.213837
293.212715
293.208205
293.207205
293.206217
293.205281
293.204435
293.203937
293.201927
293.206391
293.229491
293.228922
293.227837
293.226401
293.224773
293.22309
293.221456
293.219936
293.218568
293.217372
293.216358
293.21608
293.215462
293.21499
293.214656
293.214449
293.214361
293.214381
293.214499
293.214707
293.214993
293.215349
293.215765
293.21623
293.216737
293.217275
293.217835
293.218407
293.218983
293.219553
293.220107
293.220636
293.221131
293.221583
293.221981
293.222317
293.222582
293.222767
293.222863
293.222862
293.222757
293.222539
293.222204
293.221745
293.221188
293.220486
293.219693
293.218813
293.217851
293.216816
293.215719
293.214576
293.209989
293.208982
293.207998
293.20707
293.206236
293.205753
293.203742
293.208334
293.237114
293.23659
293.235578
293.234224
293.232671
293.231645
293.23009
293.228604
293.227228
293.225989
293.224898
293.223959
293.223167
293.222519
293.222007
293.221623
293.221357
293.2212
293.221141
293.221171
293.22128
293.221458
293.221696
293.221984
293.222312
293.222673
293.223055
293.22345
293.223849
293.224243
293.224622
293.224977
293.2253
293.225582
293.225813
293.225984
293.226088
293.226116
293.226059
293.225911
293.225664
293.225311
293.224846
293.224295
293.223605
293.222831
293.221975
293.22104
293.220033
293.218962
293.217839
293.21668
293.212007
293.210998
293.210018
293.2091
293.208277
293.207811
293.205796
293.210532
293.246156
293.24566
293.244689
293.243373
293.241859
293.240253
293.238627
293.23705
293.235566
293.234203
293.232977
293.231894
293.230954
293.230152
293.229483
293.228938
293.228509
293.228187
293.22796
293.227821
293.22776
293.227766
293.227831
293.227945
293.2281
293.228285
293.228493
293.228713
293.228938
293.229158
293.229364
293.229549
293.229702
293.229817
293.229884
293.229895
293.229843
293.22972
293.229518
293.22923
293.228851
293.228375
293.227796
293.227141
293.226358
293.225501
293.224574
293.223578
293.222521
293.221412
293.220262
293.219086
293.217902
293.213302
293.212326
293.211418
293.210604
293.210154
293.208132
293.213032
293.254993
293.254517
293.253572
293.252279
293.250756
293.24911
293.24743
293.245781
293.244211
293.242748
293.241409
293.240203
293.23913
293.238188
293.237372
293.236674
293.236087
293.2356
293.235205
293.234893
293.234654
293.234478
293.234356
293.234279
293.234237
293.234222
293.234224
293.234234
293.234254
293.234304
293.23434
293.234356
293.234343
293.234293
293.234198
293.23405
293.233842
293.233568
293.23322
293.232792
293.232278
293.231674
293.231003
293.230212
293.229353
293.22843
293.227444
293.226399
293.225303
293.224164
293.222994
293.221808
293.220623
293.219463
293.214953
293.214059
293.213262
293.212836
293.210811
293.216758
293.263519
293.263076
293.262182
293.260947
293.259474
293.257862
293.256195
293.254535
293.252929
293.251409
293.249994
293.248694
293.247514
293.246452
293.245506
293.244669
293.243935
293.243296
293.242744
293.242269
293.241864
293.241518
293.241224
293.240973
293.240755
293.240563
293.240387
293.240219
293.240052
293.239875
293.239683
293.239465
293.239258
293.239048
293.238797
293.238496
293.238141
293.237723
293.237238
293.23668
293.236043
293.235324
293.23455
293.233663
293.23272
293.231721
293.23067
293.229571
293.228431
293.227259
293.226066
293.224866
293.223676
293.222519
293.221424
293.217001
293.216212
293.215799
293.213758
293.219918
293.271984
293.271577
293.270743
293.269579
293.268176
293.26662
293.264989
293.263342
293.261726
293.260172
293.258703
293.25733
293.25606
293.254895
293.253833
293.252871
293.252003
293.251221
293.25052
293.249891
293.249327
293.248818
293.248358
293.247938
293.247549
293.247184
293.246835
293.246493
293.246151
293.245801
293.245435
293.245046
293.244627
293.244171
293.243691
293.243238
293.242734
293.242173
293.241549
293.240857
293.240094
293.239284
293.238369
293.237404
293.23639
293.235329
293.234224
293.23308
293.231903
293.230704
293.229492
293.228281
293.227088
293.225937
293.224852
293.223857
293.219503
293.219104
293.217042
293.223436
293.28048
293.280112
293.279343
293.278258
293.276935
293.275451
293.273873
293.272259
293.270653
293.269086
293.267581
293.266153
293.264811
293.263558
293.262394
293.261319
293.260327
293.259414
293.258573
293.257798
293.257082
293.256418
293.255797
293.255214
293.25466
293.254127
293.253609
293.253098
293.252586
293.252067
293.251533
293.250977
293.250394
293.249775
293.249115
293.248408
293.247687
293.246986
293.246227
293.245406
293.244549
293.243593
293.242595
293.241554
293.240472
293.239351
293.238194
293.237006
293.235795
293.234569
293.233339
293.232118
293.230923
293.229777
293.228703
293.227718
293.226846
293.226378
293.220725
293.227375
293.289057
293.288729
293.288025
293.287024
293.285789
293.284387
293.282878
293.281313
293.279734
293.278172
293.276651
293.275187
293.273789
293.272464
293.271214
293.270039
293.268936
293.267902
293.266932
293.266021
293.265163
293.264351
293.263579
293.26284
293.262127
293.261435
293.260755
293.260081
293.259407
293.258726
293.258032
293.257318
293.256578
293.255807
293.254998
293.254147
293.253248
293.252297
293.25137
293.250435
293.249472
293.248418
293.247329
293.246207
293.245053
293.243868
293.242657
293.241425
293.240178
293.238925
293.237677
293.236445
293.235247
293.234106
293.23304
293.232063
293.231199
293.230747
293.228566
293.23535
293.297744
293.297454
293.296817
293.295901
293.294759
293.293448
293.292019
293.290518
293.288983
293.287444
293.285925
293.284442
293.283007
293.281627
293.280307
293.279047
293.277847
293.276706
293.275619
293.274583
293.273592
293.272642
293.271727
293.270841
293.269978
293.269133
293.268298
293.267469
293.266638
293.265801
293.264952
293.264084
293.263193
293.262273
293.261319
293.260327
293.259291
293.258209
293.257076
293.255925
293.254811
293.253676
293.252514
293.251324
293.250109
293.248872
293.247616
293.246347
293.245072
293.243798
293.242535
293.241297
293.240101
293.238967
293.237909
293.236941
293.236086
293.235646
293.233439
293.24053
293.306563
293.306311
293.305739
293.304908
293.303862
293.302647
293.301307
293.299882
293.298406
293.296907
293.295409
293.293926
293.292472
293.291056
293.289683
293.288356
293.287076
293.285842
293.284652
293.283504
293.282394
293.281318
293.280272
293.279249
293.278246
293.277257
293.276277
293.275301
293.274323
293.273338
293.272342
293.271329
293.270294
293.269233
293.268141
293.267015
293.26585
293.264644
293.263428
293.262125
293.260683
293.259483
293.258252
293.257
293.255731
293.254446
293.25315
293.251849
293.250548
293.249257
293.247983
293.246741
293.245549
293.244423
293.243373
293.242413
293.241565
293.241135
293.2389
293.246324
293.316259
293.316042
293.315527
293.314771
293.31381
293.312682
293.311424
293.31007
293.308651
293.307192
293.305109
293.303646
293.302192
293.300759
293.299353
293.297977
293.296635
293.295327
293.294052
293.292808
293.291594
293.290407
293.289242
293.288097
293.286966
293.285846
293.284733
293.283621
293.282507
293.281386
293.280253
293.279105
293.277937
293.276745
293.275526
293.274276
293.272993
293.271708
293.270341
293.268956
293.267555
293.265888
293.264608
293.263308
293.261989
293.260662
293.259331
293.258002
293.25668
293.255373
293.254092
293.252849
293.251664
293.250545
293.249501
293.248549
293.247706
293.247285
293.24502
293.252802
293.325474
293.325293
293.324839
293.324165
293.3233
293.322273
293.321116
293.319856
293.31852
293.31713
293.315706
293.314262
293.312812
293.311365
293.309929
293.308508
293.307106
293.305178
293.303837
293.302516
293.301216
293.299935
293.298669
293.297417
293.296175
293.294939
293.293707
293.292474
293.291238
293.289993
293.288738
293.287468
293.286179
293.284869
293.283535
293.282174
293.280782
293.279329
293.27787
293.276405
293.274935
293.273
293.271661
293.270312
293.268954
293.267592
293.266231