/*--------------------------------*- C++ -*----------------------------------*\
  =========                 |
  \\      /  F ield         | OpenFOAM: The Open Source CFD Toolbox
   \\    /   O peration     | Website:  https://openfoam.org
    \\  /    A nd           | Version:  11
     \\/     M anipulation  |
\*---------------------------------------------------------------------------*/
FoamFile
{
    format      ascii;
    class       volScalarField;
    location    "8.97528e-06";
    object      p;
}
// * * * * * * * * * * * * * * * * * * * * * * * * * * * * * * * * * * * * * //

dimensions      [1 -1 -2 0 0 0 0];

internalField   nonuniform List<scalar> 
120000
(
6099162.58
6099164.16
6099167.32
6099172.1
6099178.53
6099186.66
6099196.57
6099208.31
6099221.99
6099237.71
6099255.59
6099275.76
6099298.4
6099323.66
6099351.75
6099382.88
6099417.3
6099455.27
6099497.09
6099543.09
6099593.62
6099649.08
6099709.9
6099776.57
6099849.61
6099929.59
6100017.15
6100113
6100217.88
6100332.65
6100458.22
6100595.62
6100745.97
6100910.49
6101090.54
6101287.62
6101503.37
6101739.63
6101998.41
6102281.94
6102592.68
6102933.36
6103306.99
6103716.9
6104166.72
6104660.42
6105202.24
6105796.64
6106448.14
6107160.97
6107938.6
6108782.8
6109692.13
6110659.52
6111668.33
6112686.06
6113654.37
6114473.31
6114977
6115836.69
6099636.38
6099640.79
6099649.65
6099663.02
6099681
6099703.71
6099731.33
6099764.05
6099802.1
6099845.74
6099895.3
6099951.12
6100013.59
6100083.15
6100160.29
6100245.54
6100339.5
6100442.82
6100556.2
6100680.43
6100816.35
6100964.89
6101127.04
6101303.9
6101496.63
6101706.51
6101934.9
6102183.27
6102453.21
6102746.42
6103064.7
6103409.98
6103784.33
6104189.91
6104629.03
6105104.07
6105617.54
6106172.02
6106770.16
6107414.6
6108107.96
6108852.77
6109651.36
6110505.74
6111417.43
6112387.29
6113415.18
6114499.65
6115637.47
6116823.05
6118047.69
6119298.7
6120558.31
6121802.38
6122998.95
6124106.76
6125074.48
6125827.07
6126289.75
6127379.74
6100205.99
6100213.1
6100227.38
6100248.93
6100277.88
6100314.45
6100358.88
6100411.46
6100472.56
6100542.57
6100621.97
6100711.27
6100811.08
6100922.04
6101044.87
6101180.38
6101329.44
6101493
6101672.09
6101867.85
6102081.48
6102314.32
6102567.77
6102843.35
6103142.69
6103467.54
6103819.76
6104201.3
6104614.26
6105060.83
6105543.32
6106064.14
6106625.8
6107230.86
6107881.97
6108581.79
6109332.97
6110138.13
6110999.78
6111920.21
6112901.5
6113945.29
6115052.74
6116224.32
6117459.6
6118757.04
6120113.68
6121524.8
6122983.56
6124480.52
6126003.1
6127535.06
6129055.81
6130539.75
6131955.6
6133253.35
6134386.44
6135299.72
6135929.18
6137191.09
6100790.38
6100799.98
6100819.25
6100848.32
6100887.37
6100936.66
6100996.49
6101067.25
6101149.39
6101243.42
6101349.92
6101469.56
6101603.07
6101751.27
6101915.07
6102095.44
6102293.46
6102510.3
6102747.23
6103005.61
6103286.9
6103592.69
6103924.65
6104284.58
6104674.39
6105096.08
6105551.79
6106043.74
6106574.27
6107145.81
6107760.88
6108422.04
6109131.93
6109893.2
6110708.5
6111580.43
6112511.48
6113504.02
6114560.18
6115681.76
6116870.18
6118126.31
6119450.35
6120841.64
6122298.5
6123817.97
6125395.56
6127024.96
6128697.67
6130402.64
6132125.84
6133849.74
6135552.8
6137208.84
6138774.17
6140209.66
6141469.01
6142497.76
6143232.23
6144575.08
6101349.93
6101361.76
6101385.49
6101421.28
6101469.33
6101529.95
6101603.49
6101690.38
6101791.15
6101906.38
6102036.75
6102183
6102345.98
6102526.62
6102725.92
6102945.01
6103185.08
6103447.44
6103733.51
6104044.77
6104382.86
6104749.49
6105146.48
6105575.78
6106039.41
6106539.53
6107078.37
6107658.26
6108281.61
6108950.9
6109668.67
6110437.48
6111259.93
6112138.55
6113075.86
6114074.25
6115135.96
6116263.01
6117457.11
6118719.62
6120051.37
6121452.6
6122922.8
6124460.54
6126063.28
6127727.18
6129446.84
6131214.99
6133022.24
6134856.66
6136703.41
6138544.27
6140357.1
6142103.78
6143751.16
6145260.01
6146584.18
6147669.69
6148453.68
6149826.36
6101870.54
6101884.32
6101911.95
6101953.6
6102009.5
6102079.98
6102165.43
6102266.31
6102383.19
6102516.71
6102667.59
6102836.64
6103024.76
6103232.96
6103462.3
6103713.98
6103989.28
6104289.56
6104616.31
6104971.12
6105355.65
6105771.7
6106221.15
6106705.99
6107228.28
6107790.2
6108394.01
6109042.01
6109736.61
6110480.23
6111275.33
6112124.37
6113029.81
6113994.02
6115019.3
6116107.8
6117261.46
6118481.96
6119770.66
6121128.46
6122555.74
6124052.24
6125616.89
6127247.71
6128941.57
6130694.02
6132499.07
6134348.9
6136233.6
6138140.8
6140055.32
6141958.75
6143817.97
6145604.96
6147286.63
6148824.09
6150171.9
6151277.18
6152078.69
6153454.92
6102350.89
6102366.34
6102397.33
6102444.02
6102506.67
6102585.61
6102681.24
6102794.08
6102924.69
6103073.74
6103241.99
6103430.28
6103639.55
6103870.82
6104125.2
6104403.92
6104708.28
6105039.68
6105399.64
6105789.74
6106211.7
6106667.3
6107158.43
6107687.06
6108255.25
6108865.13
6109518.91
6110218.84
6110967.24
6111766.43
6112618.74
6113526.51
6114491.99
6115517.38
6116604.74
6117755.96
6118972.71
6120256.36
6121607.9
6123027.88
6124516.29
6126072.44
6127694.83
6129381.02
6131127.41
6132929.12
6134779.69
6136670.89
6138592.38
6140531.46
6142472.65
6144397.34
6146272.24
6148069.76
6149757.44
6151297.26
6152644.97
6153749.26
6154550.92
6155917.03
6102795.78
6102812.66
6102846.52
6102897.52
6102965.93
6103052.08
6103156.4
6103279.38
6103421.63
6103583.81
6103766.7
6103971.15
6104198.11
6104448.6
6104723.76
6105024.8
6105353.04
6105709.88
6106096.82
6106515.45
6106967.44
6107454.58
6107978.69
6108541.73
6109145.69
6109792.64
6110484.7
6111224.04
6112012.86
6112853.36
6113747.74
6114698.15
6115706.69
6116775.33
6117905.93
6119100.14
6120359.35
6121684.67
6123076.78
6124535.93
6126061.76
6127653.25
6129308.57
6131024.91
6132798.37
6134623.7
6136494.15
6138401.22
6140334.34
6142280.61
6144224.46
6146147.2
6148016.02
6149803.9
6151479.15
6153004.81
6154337.96
6155429.03
6156220.98
6157569.49
6103212.64
6103230.75
6103267.07
6103321.78
6103395.12
6103487.44
6103599.17
6103730.81
6103882.96
6104056.29
6104251.57
6104469.65
6104711.48
6104978.08
6105270.57
6105590.16
6105938.14
6106315.9
6106724.91
6107166.73
6107643.01
6108155.46
6108705.89
6109296.15
6109928.19
6110603.99
6111325.58
6112095.02
6112914.38
6113785.75
6114711.16
6115692.61
6116732.01
6117831.16
6118991.71
6120215.07
6121502.42
6122854.6
6124272.07
6125754.79
6127302.16
6128912.89
6130584.89
6132315.13
6134099.49
6135932.56
6137807.48
6139715.67
6141646.63
6143587.65
6145523.46
6147426.09
6149272.75
6151036.81
6152687.24
6154188.03
6155497.6
6156568.05
6157344.52
6158671.26
6103609.7
6103628.88
6103667.34
6103725.26
6103802.88
6103900.55
6104018.69
6104157.8
6104318.48
6104501.39
6104707.29
6104937.03
6105191.54
6105471.81
6105778.97
6106114.19
6106478.74
6106873.97
6107301.33
6107762.32
6108258.54
6108791.66
6109363.41
6109975.59
6110630.05
6111328.69
6112073.42
6112866.21
6113709.01
6114603.75
6115552.33
6116556.59
6117618.28
6118739
6119920.21
6121163.12
6122468.69
6123837.55
6125269.91
6126765.5
6128323.5
6129942.38
6131619.82
6133352.59
6135136.36
6136965.57
6138833.2
6140730.6
6142647.22
6144570.35
6146484.83
6148362.96
6150182.58
6151917.82
6153538.58
6155010.03
6156292.06
6157338.57
6158096.89
6159399.82
6103995.04
6104015.17
6104055.52
6104116.27
6104197.66
6104300.05
6104423.83
6104569.52
6104737.68
6104928.98
6105144.17
6105384.07
6105649.59
6105941.73
6106261.55
6106610.22
6106988.98
6107399.13
6107842.07
6108319.26
6108832.26
6109382.65
6109972.11
6110602.35
6111275.15
6111992.29
6112755.61
6113566.95
6114428.13
6115340.96
6116307.19
6117328.51
6118406.5
6119542.6
6120738.06
6121993.92
6123310.94
6124689.53
6126129.7
6127630.98
6129192.31
6130811.98
6132487.48
6134215.39
6135991.22
6137809.29
6139662.51
6141542.18
6143437.79
6145336.75
6147224.1
6149072.63
6150860.72
6152563.18
6154150.85
6155590.07
6156842.15
6157862.79
6158601.49
6159879.51
6104376.12
6104397.1
6104439.16
6104502.46
6104587.26
6104693.89
6104822.75
6104974.33
6105149.2
6105348.02
6105571.5
6105820.46
6106095.78
6106398.44
6106729.47
6107090
6107481.23
6107904.43
6108360.95
6108852.21
6109379.68
6109944.9
6110549.46
6111195.01
6111883.22
6112615.8
6113394.47
6114220.95
6115096.96
6116024.17
6117004.19
6118038.56
6119128.7
6120275.88
6121481.2
6122745.49
6124069.34
6125452.96
6126896.18
6128398.33
6129958.17
6131573.79
6133242.53
6134960.81
6136724.02
6138526.38
6140360.74
6142218.41
6144088.95
6145959.91
6147816.57
6149632.27
6151385.92
6153053.09
6154605.51
6156010.69
6157231.39
6158225.07
6158943.34
6160195.87
6104759.6
6104781.37
6104825
6104890.65
6104978.58
6105089.1
6105222.62
6105379.61
6105560.64
6105766.32
6105997.38
6106254.59
6106538.83
6106851.03
6107192.2
6107563.43
6107965.89
6108400.8
6108869.45
6109373.21
6109913.5
6110491.78
6111109.57
6111768.44
6112469.98
6113215.79
6114007.49
6114846.71
6115735.01
6116673.96
6117665.04
6118709.63
6119809.01
6120964.28
6122176.38
6123445.98
6124773.49
6126158.94
6127601.98
6129101.78
6130656.91
6132265.33
6133924.2
6135629.83
6137377.5
6139161.35
6140974.19
6142807.33
6144650.37
6146490.97
6148314.6
6150095.23
6151812.44
6153442.52
6154958.2
6156328.16
6157516.56
6158482.61
6159180.01
6160406.73
6105151.31
6105173.82
6105218.91
6105286.77
6105377.63
6105491.8
6105629.67
6105791.72
6105978.48
6106190.56
6106428.67
6106693.55
6106986.05
6107307.08
6107657.61
6108038.71
6108451.47
6108897.1
6109376.82
6109891.95
6110443.83
6111033.88
6111663.53
6112334.26
6113047.58
6113805
6114608.03
6115458.19
6116356.93
6117305.69
6118305.81
6119358.55
6120465.02
6121626.2
6122842.85
6124115.49
6125444.35
6126829.34
6128269.93
6129765.13
6131313.39
6132912.53
6134559.61
6136250.87
6137981.54
6139745.78
6141536.46
6143345.05
6145161.4
6146973.52
6148759.1
6150500.77
6152178.49
6153769.19
6155246.4
6156579.85
6157735.09
6158672.95
6159349.14
6160549.86
6105556.3
6105579.51
6105626
6105695.95
6105789.58
6105907.21
6106049.22
6106216.06
6106408.24
6106626.38
6106871.14
6107143.25
6107443.53
6107772.85
6108132.16
6108522.47
6108944.85
6109400.44
6109890.42
6110416.04
6110978.6
6111579.41
6112219.86
6112901.33
6113625.25
6114393.02
6115206.06
6116065.76
6116973.49
6117930.53
6118938.1
6119997.33
6121109.18
6122274.48
6123493.84
6124767.63
6126095.92
6127478.44
6128914.52
6130403.03
6131942.26
6133529.89
6135162.87
6136837.34
6138548.45
6140290.31
6142055.8
6143836.4
6145622.03
6147400.88
6149150.95
6150855.43
6152494.94
6154047.16
6155486.58
6156784.09
6157906.62
6158816.68
6159471.94
6160646.8
6105978.95
6106002.82
6106050.66
6106122.61
6106218.91
6106339.86
6106485.82
6106657.24
6106854.62
6107078.53
6107329.63
6107608.63
6107916.3
6108253.49
6108621.11
6109020.13
6109451.57
6109916.52
6110416.12
6110951.54
6111524.01
6112134.8
6112785.18
6113476.48
6114210.02
6114987.11
6115809.07
6116677.18
6117592.68
6118556.74
6119570.45
6120634.79
6121750.6
6122918.55
6124139.1
6125412.46
6126738.56
6128116.97
6129546.87
6131026.98
6132555.45
6134129.85
6135747
6137402.96
6139092.82
6140810.67
6142549.39
6144300.55
6146054.2
6147798.74
6149512.63
6151179.51
6152780.58
6154294.27
6155695.98
6156957.74
6158047.8
6158930.31
6159564.88
6160714
6106423.09
6106447.62
6106496.74
6106570.63
6106669.51
6106793.65
6106943.42
6107119.24
6107321.61
6107551.07
6107808.26
6108093.84
6108408.59
6108753.29
6109128.83
6109536.13
6109976.16
6110449.97
6110958.62
6111503.24
6112084.99
6112705.05
6113364.64
6114064.98
6114807.3
6115592.84
6116422.78
6117298.31
6118220.55
6119190.55
6120209.27
6121277.56
6122396.1
6123565.44
6124785.89
6126057.51
6127380.08
6128753.03
6130175.39
6131645.73
6133162.08
6134721.9
6136321.92
6137958.09
6139625.49
6141318.17
6143029.06
6144749.8
6146470.6
6148180.07
6149857.16
6151485.98
6153048.29
6154523.27
6155887.22
6157113.26
6158171.01
6159026.16
6159640.25
6160763.73
6106892.14
6106917.29
6106967.67
6107043.43
6107144.79
6107272.02
6107425.47
6107605.54
6107812.72
6108047.52
6108310.55
6108602.47
6108923.99
6109275.88
6109658.98
6110074.16
6110522.36
6111004.55
6111521.76
6112075.03
6112665.47
6113294.18
6113962.3
6114670.97
6115421.32
6116214.48
6117051.56
6117933.62
6118861.67
6119836.63
6120859.35
6121930.53
6123050.74
6124220.37
6125439.6
6126708.35
6128026.25
6129392.6
6130806.29
6132265.76
6133768.95
6135313.17
6136895.08
6138510.58
6140154.68
6141821.44
6143503.8
6145193.47
6146880.77
6148554.49
6150194.14
6151784.31
6153307.41
6154743.36
6156069.37
6157259.66
6158285.13
6159113.07
6159706.81
6160804.77
6107389.2
6107414.95
6107466.54
6107544.11
6107647.87
6107778.08
6107935.07
6108119.25
6108331.05
6108570.99
6108839.64
6109137.63
6109465.64
6109824.4
6110214.7
6110637.38
6111093.32
6111583.45
6112108.71
6112670.11
6113268.67
6113905.41
6114581.41
6115297.69
6116055.33
6116855.34
6117698.74
6118586.46
6119519.4
6120498.39
6121524.12
6122597.19
6123718.04
6124886.92
6126103.87
6127368.69
6128680.88
6130039.62
6131443.67
6132891.38
6134380.58
6135908.54
6137471.85
6139066.39
6140687.22
6142328.45
6143983.17
6145643.3
6147299.46
6148933.89
6150533.4
6152082.92
6153565.34
6154961.22
6156248.62
6157402.76
6158395.8
6159196.5
6159769.96
6160842.45
6107917.13
6107943.47
6107996.22
6108075.53
6108181.6
6108314.68
6108475.09
6108663.2
6108879.45
6109124.32
6109398.35
6109702.14
6110036.33
6110401.63
6110798.78
6111228.56
6111691.81
6112189.4
6112722.21
6113291.19
6113897.27
6114541.42
6115224.6
6115947.8
6116711.96
6117518.01
6118366.85
6119259.33
6120196.23
6121178.24
6122205.96
6123279.84
6124400.2
6125567.16
6126780.63
6128040.27
6129345.47
6130695.25
6132088.29
6133522.8
6134996.52
6136506.62
6138049.65
6139621.42
6141216.97
6142830.42
6144454.92
6146082.45
6147703.8
6149301.5
6150862.8
6152373.16
6153816.09
6155172.9
6156422.53
6157541.27
6158502.53
6159276.54
6159830.14
6160877.4
6108478.68
6108505.58
6108559.46
6108640.44
6108748.72
6108884.55
6109048.23
6109240.1
6109460.59
6109710.16
6109989.31
6110298.61
6110638.68
6111010.17
6111413.77
6111850.24
6112320.34
6112824.88
6113364.71
6113940.68
6114553.67
6115204.56
6115894.24
6116623.58
6117393.47
6118204.72
6119058.13
6119954.44
6120894.33
6121878.36
6122907
6123980.6
6125099.34
6126263.21
6127472.01
6128725.25
6130022.2
6131361.78
6132742.52
6134162.55
6135619.51
6137110.49
6138631.97
6140179.75
6141748.84
6143333.41
6144926.66
6146520.73
6148106.56
6149667.11
6151190
6152661.17
6154064.71
6155382.66
6156594.81
6157678.5
6158608.35
6159356.06
6159890.13
6160912.35
6109076.54
6109103.97
6109158.91
6109241.49
6109351.88
6109490.32
6109657.11
6109852.56
6110077.07
6110331.08
6110615.08
6110929.58
6111275.17
6111652.46
6112062.1
6112504.79
6112981.25
6113492.23
6114038.5
6114620.85
6115240.09
6115897.02
6116592.45
6117327.18
6118101.96
6118917.55
6119774.63
6120673.83
6121615.71
6122600.74
6123629.27
6124701.52
6125817.54
6126977.22
6128180.21
6129425.93
6130713.51
6132041.76
6133409.12
6134813.61
6136252.79
6137723.67
6139222.7
6140745.62
6142287.48
6143842.44
6145403.79
6146963.76
6148513.44
6150036.26
6151520.25
6152951.85
6154315.76
6155594.73
6156769.42
6157818.18
6158716.84
6159438.47
6159953.23
6160950.54
6109713.36
6109741.3
6109797.25
6109881.33
6109993.71
6110134.62
6110304.33
6110503.15
6110731.44
6110989.63
6111278.15
6111597.51
6111948.24
6112330.91
6112746.14
6113194.56
6113676.84
6114193.67
6114745.77
6115333.84
6115958.63
6116620.87
6117321.27
6118060.53
6118839.35
6119658.36
6120518.16
6121419.26
6122362.13
6123347.11
6124374.45
6125444.25
6126556.46
6127710.83
6128906.92
6130144.03
6131421.19
6132737.12
6134090.16
6135478.27
6136898.95
6138349.2
6139825.43
6141323.45
6142838.33
6144364.4
6145895.08
6147422.88
6148933.27
6150415.93
6151859.17
6153249.83
6154573.13
6155812.47
6156949.31
6157962.97
6158830.41
6159526.07
6160021.66
6160994.15
6110391.84
6110420.26
6110477.15
6110562.63
6110676.88
6110820.09
6110992.53
6111194.48
6111426.28
6111688.33
6111981.04
6112304.87
6112660.32
6113047.92
6113468.24
6113921.85
6114409.36
6114931.43
6115488.67
6116081.76
6116711.33
6117378.06
6118082.57
6118825.49
6119607.4
6120428.84
6121290.32
6122192.25
6123134.98
6124118.76
6125143.7
6126209.81
6127316.92
6128464.67
6129652.51
6130879.62
6132144.93
6133447.07
6134784.28
6136154.45
6137555.01
6138982.9
6140434.51
6141905.64
6143391.38
6144886.09
6146383.31
6147875.63
6149348.84
6150792.96
6152196.73
6153547.51
6154831.08
6156031.58
6157131.29
6158110.5
6158947.34
6159617.54
6160094.35
6161042.27
6111114.76
6111143.61
6111201.37
6111288.16
6111404.12
6111549.45
6111724.39
6111929.21
6112164.23
6112429.81
6112726.33
6113054.22
6113413.93
6113805.95
6114230.8
6114689.01
6115181.14
6115707.75
6116269.42
6116866.75
6117500.3
6118170.66
6118878.37
6119623.99
6120407.98
6121230.82
6122092.9
6122994.53
6123935.96
6124917.32
6125938.64
6126999.79
6128100.5
6129240.31
6130418.55
6131634.31
6132886.41
6134173.38
6135493.4
6136844.27
6138223.37
6139627.6
6141053.33
6142496.36
6143951.82
6145414.16
6146877
6148333.13
6149768.68
6151173.98
6152538.18
6153849.08
6155093.07
6156254.96
6157317.86
6158263
6159069.62
6159714.75
6160173.11
6161096.63
6111884.98
6111914.23
6111972.78
6112060.74
6112178.25
6112325.5
6112502.71
6112710.12
6112948.03
6113216.76
6113516.68
6113848.17
6114211.65
6114607.55
6115036.35
6115498.53
6115994.58
6116525.01
6117090.35
6117691.09
6118327.76
6119000.84
6119710.81
6120458.12
6121243.18
6122066.34
6122927.9
6123828.08
6124767.03
6125744.78
6126761.24
6127816.2
6128909.26
6130039.87
6131207.25
6132410.41
6133648.07
6134918.68
6136220.34
6137550.78
6138907.35
6140286.9
6141685.81
6143099.86
6144524.25
6145953.46
6147381.24
6148800.49
6150197.77
6151563.73
6152887.94
6154158.7
6155362.96
6156486.23
6157512.41
6158423.67
6159200.32
6159820.64
6160260.8
6161160.07
6112705.48
6112735.08
6112794.34
6112883.34
6113002.24
6113151.18
6113330.38
6113540.07
6113780.52
6114052.01
6114354.88
6114689.48
6115056.18
6115455.37
6115887.49
6116352.95
6116852.19
6117385.67
6117953.84
6118557.13
6119195.99
6119870.84
6120582.06
6121330.03
6122115.05
6122937.41
6123797.3
6124694.86
6125630.12
6126603.03
6127613.4
6128660.91
6129745.08
6130865.26
6132020.59
6133209.98
6134432.1
6135685.31
6136967.67
6138276.9
6139610.28
6140964.72
6142336.59
6143721.77
6145115.56
6146512.58
6147906.81
6149286.35
6150643.09
6151967.97
6153250.86
6154480.49
6155644.35
6156728.58
6157717.82
6158595.16
6159341.92
6159937.59
6160359.72
6161234.84
6113579.39
6113609.29
6113669.15
6113759.06
6113879.14
6114029.54
6114210.45
6114422.08
6114664.67
6114938.49
6115243.82
6115580.99
6115950.32
6116352.18
6116786.92
6117254.92
6117756.58
6118292.26
6118862.37
6119467.28
6120107.35
6120782.92
6121494.31
6122241.8
6123025.63
6123845.97
6124702.94
6125596.57
6126526.81
6127493.51
6128496.38
6129535.02
6130608.84
6131717.11
6132858.87
6134032.96
6135237.95
6136472.17
6137733.6
6139019.9
6140328.35
6141655.81
6142998.69
6144352.87
6145713.71
6147075.92
6148433.59
6149775.09
6151092.62
6152377.46
6153619.91
6154809.17
6155933.32
6156979.14
6157932.07
6158776.06
6159493.48
6160064.99
6160469.46
6161320.66
6114509.97
6114540.13
6114600.49
6114691.14
6114812.2
6114963.8
6115146.11
6115359.31
6115603.62
6115879.29
6116186.56
6116525.72
6116897.06
6117300.89
6117737.52
6118207.28
6118710.49
6119247.5
6119818.6
6120424.13
6121064.36
6121739.57
6122449.99
6123195.83
6123977.23
6124794.29
6125647.03
6126535.41
6127459.28
6128418.38
6129412.36
6130440.7
6131502.74
6132597.66
6133724.43
6134881.79
6136068.27
6137282.11
6138521.26
6139783.34
6141065.6
6142364.89
6143677.64
6144999.76
6146326.68
6147653.19
6148973.49
6150276.33
6151554.17
6152798.65
6154000.46
6155149.31
6156233.8
6157241.38
6158158.25
6158969.23
6159657.66
6160205.34
6160592.44
6161419.88
6115500.68
6115531.03
6115591.79
6115683.02
6115804.83
6115957.34
6116140.71
6116355.09
6116600.68
6116877.69
6117186.34
6117526.87
6117899.54
6118304.6
6118742.33
6119213.01
6119716.89
6120254.26
6120825.37
6121430.46
6122069.76
6122743.46
6123451.73
6124194.68
6124972.39
6125784.87
6126632.06
6127513.82
6128429.94
6129380.06
6130363.75
6131380.41
6132429.31
6133509.54
6134620
6135759.4
6136926.2
6138118.59
6139334.51
6140571.56
6141827.02
6143097.76
6144380.27
6145670.58
6146964.21
6148256.17
6149536.45
6150798.49
6152034.95
6153237.76
6154397.96
6155505.69
6156550.09
6157519.21
6158399.96
6159177.99
6159837.61
6160361.68
6160731.62
6161535.42
6116555.17
6116585.66
6116646.68
6116738.31
6116860.63
6117013.76
6117197.82
6117412.96
6117659.34
6117937.15
6118246.57
6118587.81
6118961.08
6119366.61
6119804.61
6120275.3
6120778.9
6121315.63
6121885.67
6122489.22
6123126.41
6123797.38
6124502.22
6125240.98
6126013.64
6126820.13
6127660.33
6128534.01
6129440.86
6130380.46
6131352.29
6132355.68
6133389.81
6134453.71
6135546.21
6136665.95
6137811.33
6138980.53
6140171.43
6141381.62
6142608.36
6143848.55
6145098.7
6146354.89
6147612.73
6148867.32
6150108.92
6151331.2
6152527.14
6153688.99
6154808.23
6155875.44
6156880.32
6157811.55
6158656.75
6159402.4
6160033.72
6160534.65
6160887.79
6161668.17
6117677.31
6117707.87
6117769.03
6117860.86
6117983.44
6118136.86
6118321.23
6118536.67
6118783.34
6119061.37
6119370.93
6119712.18
6120085.3
6120490.46
6120927.84
6121397.61
6121899.93
6122434.96
6123002.84
6123603.67
6124237.55
6124904.53
6125604.64
6126337.85
6127104.07
6127903.16
6128734.91
6129599.02
6130495.1
6131422.67
6132381.1
6133369.68
6134387.5
6135433.54
6136506.55
6137605.14
6138727.66
6139872.23
6141036.73
6142218.72
6143415.47
6144623.91
6145840.58
6147061.61
6148282.71
6149499.09
6150701.32
6151883.3
6153038.31
6154158.96
6155237.11
6156263.81
6157229.28
6158122.83
6158932.76
6159646.36
6160249.75
6160727.89
6161064.53
6161821.65
6118871.2
6118901.77
6118962.94
6119054.77
6119177.33
6119330.7
6119514.97
6119730.25
6119976.66
6120254.31
6120563.33
6120903.86
6121276.03
6121679.97
6122115.81
6122583.67
6123083.67
6123615.91
6124180.46
6124777.38
6125406.7
6126068.4
6126762.45
6127488.74
6128247.12
6129037.38
6129859.23
6130712.31
6131596.15
6132510.2
6133453.79
6134426.11
6135426.22
6136453.02
6137505.26
6138581.47
6139679.99
6140798.93
6141936.15
6143089.26
6144255.55
6145432
6146615.25
6147801.56
6148986.77
6150162.46
6151323.27
6152463.31
6153576.1
6154654.54
6155690.86
6156676.55
6157602.33
6158458.08
6159232.79
6159914.48
6160490.16
6160945.75
6161266.11
6162000.09
6120141.22
6120171.72
6120232.75
6120324.36
6120446.62
6120599.58
6120783.33
6120997.95
6121243.53
6121520.16
6121827.94
6122166.97
6122537.35
6122939.16
6123372.49
6123837.42
6124334.01
6124862.3
6125422.33
6126014.08
6126637.52
6127292.59
6127979.16
6128697.09
6129446.14
6130226.05
6131036.45
6131876.91
6132746.91
6133645.83
6134572.92
6135527.33
6136508.06
6137513.96
6138543.72
6139595.84
6140668.64
6141760.21
6142868.39
6143990.78
6145124.7
6146267.15
6147414.83
6148564.04
6149710.73
6150846.71
6151966.85
6153065.55
6154136.61
6155173.29
6156168.21
6157113.32
6157999.86
6158818.28
6159558.25
6160208.53
6160756.98
6161190.45
6161494.86
6162205.9
6121492.01
6121522.37
6121583.11
6121674.28
6121795.93
6121948.12
6122130.89
6122344.33
6122588.48
6122863.43
6123169.23
6123505.95
6123873.65
6124272.39
6124702.21
6125163.13
6125655.17
6126178.34
6126732.59
6127317.87
6127934.09
6128581.13
6129258.8
6129966.89
6130705.12
6131473.14
6132270.54
6133096.83
6133951.43
6134833.65
6135742.7
6136677.68
6137637.54
6138621.1
6139627.02
6140653.78
6141699.69
6142762.82
6143841.06
6144932.03
6146033.11
6147141.37
6148253.61
6149366.27
6150472.03
6151566.35
6152644.28
6153700.41
6154728.83
6155723.09
6156676.19
6157580.48
6158427.7
6159208.88
6159914.29
6160533.43
6161054.95
6161466.61
6161755.33
6162443.58
6122928.56
6122958.7
6123018.99
6123109.49
6123230.22
6123381.23
6123562.57
6123774.27
6124016.38
6124288.94
6124591.99
6124925.56
6125289.68
6125684.36
6126109.61
6126565.41
6127051.74
6127568.53
6128115.71
6128693.17
6129300.76
6129938.31
6130605.58
6131302.29
6132028.11
6132782.64
6133565.4
6134375.84
6135213.34
6136077.14
6136966.43
6137880.23
6138817.47
6139776.93
6140757.22
6141756.83
6142774.02
6143806.88
6144853.29
6145910.9
6146977.1
6148049.03
6149123.53
6150197.12
6151262.69
6152315.93
6153352.1
6154366.06
6155352.2
6156304.4
6157216.04
6158079.94
6158888.29
6159632.7
6160304.06
6160892.56
6161387.64
6161777.92
6162051.29
6162716.94
6124456.27
6124486.1
6124545.79
6124635.36
6124754.85
6124904.28
6125083.69
6125293.09
6125532.52
6125801.98
6126101.49
6126431.04
6126790.64
6127180.26
6127599.87
6128049.4
6128528.8
6129037.96
6129576.75
6130145.02
6130742.57
6131369.17
6132024.54
6132708.35
6133420.21
6134159.66
6134926.19
6135719.2
6136538
6137381.82
6138249.78
6139140.89
6140054.04
6140987.99
6141941.34
6142912.56
6143899.94
6144901.58
6145915.39
6146939.07
6147970.09
6149005.68
6150042.78
6151075.01
6152098.52
6153109.14
6154102.35
6155073.2
6156016.36
6156926.02
6157795.93
6158619.31
6159388.84
6160096.63
6160734.19
6161292.37
6161761.34
6162130.58
6162388.88
6163032.06
6126080.98
6126110.42
6126169.33
6126257.73
6126375.64
6126523.08
6126700.06
6126906.59
6127142.67
6127408.29
6127703.44
6128028.09
6128382.21
6128765.73
6129178.59
6129620.7
6130091.94
6130592.17
6131121.22
6131678.9
6132264.95
6132879.1
6133521.03
6134190.34
6134886.62
6135609.35
6136357.97
6137131.84
6137930.23
6138752.33
6139597.22
6140463.88
6141351.17
6142257.83
6143182.44
6144123.47
6145079.2
6146047.75
6147027.04
6148014.8
6149008.56
6150005.58
6151002.9
6151994.33
6152976.2
6153944.54
6154895.06
6155823.08
6156723.54
6157590.99
6158419.52
6159202.78
6159933.92
6160605.58
6161209.84
6161738.21
6162181.57
6162530.19
6162773.74
6163394.66
6127809.07
6127838.04
6127896.01
6127982.98
6128098.97
6128243.99
6128418.04
6128621.11
6128853.17
6129114.21
6129404.18
6129723.03
6130070.69
6130447.07
6130852.08
6131285.59
6131747.44
6132237.46
6132755.44
6133301.13
6133874.27
6134474.51
6135101.5
6135754.81
6136433.97
6137138.43
6137867.61
6138620.8
6139397.27
6140196.16
6141016.53
6141857.34
6142717.44
6143595.55
6144490.28
6145400.08
6146323.27
6147257.99
6148202.21
6149153.72
6150110.13
6151068.79
6152024.13
6152972.89
6153911.58
6154836.39
6155743.22
6156627.62
6157484.83
6158309.68
6159096.64
6159839.74
6160532.58
6161168.29
6161739.53
6162238.42
6162656.52
6162984.86
6163213.94
6163812.73
6129647.53
6129675.95
6129732.79
6129818.08
6129931.81
6130073.98
6130244.58
6130443.58
6130670.95
6130926.64
6131210.59
6131522.72
6131862.94
6132231.12
6132627.15
6133050.86
6133502.07
6133980.56
6134486.1
6135018.4
6135577.14
6136161.97
6136772.49
6137408.22
6138068.68
6138753.27
6139461.37
6140192.27
6140945.19
6141719.25
6142513.51
6143326.9
6144158.28
6145006.36
6145869.75
6146746.95
6147636.27
6148535.92
6149443.91
6150358.12
6151276.22
6152193.13
6153105.97
6154011.63
6154906.77
6155787.76
6156650.7
6157491.41
6158305.36
6159087.73
6159833.3
6160536.52
6161191.42
6161791.62
6162330.3
6162800.18
6163193.48
6163501.94
6163716.87
6164293.71
6131604.15
6131631.92
6131687.47
6131770.8
6131881.91
6132020.8
6132187.43
6132381.76
6132603.75
6132853.32
6133130.4
6133434.88
6133766.65
6134125.57
6134511.47
6134924.17
6135363.46
6135829.09
6136320.79
6136838.25
6137381.11
6137948.98
6138541.43
6139157.97
6139798.06
6140461.09
6141146.4
6141853.26
6142580.86
6143328.32
6144094.66
6144878.82
6145679.63
6146495.82
6147326.01
6148168.68
6149022.2
6149884.79
6150754.52
6151629.29
6152506.85
6153382.28
6154252.86
6155115.64
6155967.43
6156804.82
6157624.14
6158421.43
6159192.48
6159932.76
6160637.41
6161301.26
6161918.76
6162484.01
6162990.71
6163432.16
6163801.19
6164090.25
6164291.37
6164846.44
6133687.71
6133714.75
6133768.82
6133849.94
6133958.1
6134093.27
6134255.42
6134444.49
6134660.42
6134903.13
6135172.51
6135468.45
6135790.81
6136139.42
6136514.1
6136914.64
6137340.8
6137792.31
6138268.86
6138770.13
6139295.73
6139845.24
6140418.2
6141014.1
6141632.38
6142272.4
6142933.5
6143614.91
6144315.82
6145035.34
6145772.49
6146526.21
6147295.33
6148078.61
6148874.69
6149682.08
6150499.18
6151324.29
6152155.52
6152990.87
6153825.9
6154658.15
6155485.03
6156303.71
6157111.18
6157904.19
6158679.3
6159432.79
6160160.7
6160858.8
6161522.58
6162147.22
6162727.6
6163258.25
6163733.38
6164146.82
6164492.01
6164762.03
6164949.65
6165483.1
6135908.09
6135934.31
6135986.74
6136065.4
6136170.26
6136301.29
6136458.46
6136641.69
6136850.9
6137086
6137346.88
6137633.39
6137945.39
6138282.68
6138645.06
6139032.3
6139444.15
6139880.3
6140340.43
6140824.19
6141331.17
6141860.94
6142413.01
6142986.85
6143581.88
6144197.46
6144832.9
6145487.44
6146160.25
6146850.44
6147557.04
6148278.99
6149015.15
6149764.28
6150525.05
6151296.03
6152075.66
6152862.28
6153654.08
6154447.02
6155238.93
6156027.49
6156810.21
6157584.42
6158347.28
6159095.75
6159826.56
6160536.26
6161221.15
6161877.29
6162500.49
6163086.3
6163629.99
6164126.53
6164570.6
6164956.54
6165278.38
6165529.79
6165704.22
6166216.22
6138276.48
6138301.8
6138352.43
6138428.37
6138529.6
6138656.09
6138807.78
6138984.59
6139186.44
6139413.22
6139664.79
6139941.02
6140241.72
6140566.69
6140915.72
6141288.56
6141684.92
6142104.5
6142546.96
6143011.92
6143498.95
6144007.62
6144537.42
6145087.81
6145658.18
6146247.91
6146856.28
6147482.54
6148125.87
6148785.36
6149460.06
6150148.93
6150850.86
6151564.62
6152288.93
6153022.38
6153763.49
6154510.65
6155260.15
6156010.07
6156758.35
6157502.78
6158241
6158970.52
6159688.63
6160392.5
6161079.09
6161745.16
6162387.27
6163001.79
6163584.83
6164132.29
6164639.82
6165102.82
6165516.41
6165875.42
6166174.43
6166407.68
6166569.26
6167059.99
6140805.84
6140830.17
6140878.83
6140951.82
6141049.11
6141170.65
6141316.38
6141486.23
6141680.09
6141897.85
6142139.36
6142404.46
6142692.97
6143004.68
6143339.34
6143696.71
6144076.48
6144478.33
6144901.91
6145346.83
6145812.67
6146298.94
6146805.16
6147330.77
6147875.16
6148437.7
6149017.67
6149614.33
6150226.86
6150854.37
6151495.93
6152150.5
6152817.01
6153494.28
6154181.05
6154875.97
6155577.62
6156282.6
6156989.2
6157695.58
6158399.79
6159099.76
6159793.25
6160477.92
6161151.25
6161810.58
6162453.09
6163075.77
6163675.45
6164248.75
6164792.11
6165301.77
6165773.74
6166203.8
6166587.53