/*--------------------------------*- C++ -*----------------------------------*\
  =========                 |
  \\      /  F ield         | OpenFOAM: The Open Source CFD Toolbox
   \\    /   O peration     | Website:  https://openfoam.org
    \\  /    A nd           | Version:  11
     \\/     M anipulation  |
\*---------------------------------------------------------------------------*/
FoamFile
{
    format      ascii;
    class       volScalarField;
    location    "8.97528e-06";
    object      rho.gas;
}
// * * * * * * * * * * * * * * * * * * * * * * * * * * * * * * * * * * * * * //

dimensions      [1 -3 0 0 0 0 0];

internalField   nonuniform List<scalar> 
120000
(
248.085741
248.08607
248.08673
248.087727
248.089068
248.090764
248.092827
248.095272
248.098117
248.101383
248.105092
248.109272
248.113953
248.119168
248.124954
248.131354
248.138412
248.146178
248.154708
248.164062
248.174306
248.185512
248.197757
248.211127
248.225716
248.241623
248.258957
248.277836
248.298389
248.320753
248.345077
248.371522
248.400259
248.431475
248.465366
248.502145
248.542036
248.585276
248.632116
248.682814
248.737637
248.796853
248.860721
248.929481
249.003331
249.082396
249.166678
249.255983
249.349805
249.447156
249.546293
249.64432
249.736566
249.815643
249.870012
249.881808
249.823538
249.653101
249.306428
248.895894
248.129733
248.130648
248.132487
248.13526
248.138988
248.143696
248.149414
248.15618
248.164038
248.17304
248.183243
248.194714
248.207525
248.221757
248.237499
248.25485
248.273916
248.294815
248.31767
248.34262
248.369809
248.399395
248.431545
248.466438
248.504262
248.545217
248.589513
248.637369
248.689011
248.744675
248.804597
248.86902
248.938181
249.012311
249.091627
249.176328
249.266576
249.36249
249.464127
249.571459
249.684348
249.80251
249.925475
250.052526
250.182642
250.314399
250.445878
250.574521
250.696975
250.80889
250.904679
250.977232
251.017584
251.014551
250.954344
250.820217
250.59235
250.245023
249.752332
249.306252
248.218832
248.220306
248.223264
248.227726
248.233718
248.24128
248.250457
248.261306
248.273893
248.288295
248.304598
248.322899
248.343306
248.365939
248.390928
248.418415
248.448556
248.481516
248.517476
248.556627
248.599174
248.645333
248.695334
248.749416
248.80783
248.870837
248.938703
249.011701
249.090107
249.174195
249.264232
249.360474
249.463158
249.57249
249.688639
249.811718
249.941771
250.078752
250.222498
250.372703
250.528881
250.690325
250.856058
251.024773
251.194766
251.363857
251.529297
251.687664
251.83475
251.965425
252.073497
252.151567
252.190871
252.181137
252.110442
251.9624
251.72116
251.368858
250.885748
250.465763
248.325329
248.327316
248.331302
248.337311
248.345379
248.355553
248.367892
248.382466
248.399359
248.418666
248.440494
248.464964
248.49221
248.522379
248.555631
248.592139
248.632093
248.675692
248.723152
248.774701
248.830581
248.891043
248.956354
249.026787
249.102625
249.184158
249.271678
249.365478
249.465844
249.573057
249.687376
249.809042
249.938257
250.075181
250.219915
250.372485
250.532824
250.700748
250.875932
251.057878
251.24588
251.438983
251.635937
251.835143
252.034592
252.231798
252.423721
252.606681
252.776267
252.927236
253.053399
253.147513
253.201152
253.204582
253.143931
253.006128
252.776339
252.437831
251.971835
251.569344
248.434656
248.437099
248.442001
248.449388
248.459302
248.471795
248.486937
248.504807
248.525499
248.549123
248.575799
248.605665
248.638871
248.675582
248.715976
248.760248
248.808605
248.861267
248.918471
248.980464
249.047507
249.119869
249.197832
249.281684
249.371719
249.468233
249.571521
249.681873
249.799568
249.92487
250.058017
250.199214
250.348624
250.506353
250.672436
250.846824
251.029358
251.219752
251.417565
251.622171
251.832725
252.048127
252.266974
252.487512
252.707583
252.924561
253.135284
253.335976
253.522167
253.688597
253.829117
253.936584
254.002741
254.015541
253.963828
253.834899
253.614358
253.285968
252.831513
252.441457
248.540262
248.543103
248.548801
248.557386
248.568902
248.583407
248.600973
248.621688
248.645653
248.672984
248.703812
248.738281
248.776553
248.8188
248.865213
248.915995
248.971362
249.031546
249.096789
249.167347
249.243486
249.325481
249.413614
249.508174
249.60945
249.717732
249.833305
249.956443
250.087405
250.226429
250.373721
250.529448
250.693729
250.866617
251.048088
251.238025
251.436196
251.642234
251.855611
252.075608
252.301285
252.531442
252.764579
252.998848
253.232004
253.461343
253.683644
253.895092
254.091204
254.266746
254.415636
254.53085
254.601873
254.619112
254.57164
254.447062
254.231375
253.908831
253.461806
253.08757
248.639816
248.642997
248.649377
248.658986
248.67187
248.688089
248.70772
248.730852
248.757589
248.788052
248.822375
248.860707
248.903213
248.950069
249.001468
249.057617
249.118734
249.185052
249.256814
249.334273
249.417693
249.507343
249.603501
249.706444
249.81645
249.933794
250.058741
250.191544
250.332435
250.481621
250.639274
250.805522
250.980436
251.164021
251.3562
251.556794
251.76551
251.981911
252.2054
252.435183
252.670245
252.909312
253.150812
253.392826
253.633047
253.868717
254.096572
254.312769
254.51282
254.691502
254.842778
254.959695
255.03184
255.049866
255.00315
254.879665
254.665859
254.346526
253.904689
253.540232
248.733154
248.736625
248.743583
248.754061
248.768104
248.785775
248.807149
248.832317
248.861385
248.894473
248.931717
248.973266
249.019282
249.069945
249.125444
249.185984
249.25178
249.323062
249.400066
249.483039
249.572237
249.66792
249.77035
249.879791
249.996506
250.120747
250.252758
250.392766
250.540975
250.697558
250.862652
251.036345
251.218666
251.409574
251.608941
251.816536
252.032011
252.254872
252.484462
252.71993
252.960201
253.203945
253.449535
253.695008
253.938013
254.175763
254.404976
254.621807
254.821785
254.999726
255.149657
255.264721
255.334722
255.350573
255.301966
255.177261
254.963371
254.645646
254.20777
253.850105
248.821176
248.824892
248.832342
248.843557
248.858584
248.877483
248.90033
248.927216
248.958246
248.993537
249.033224
249.077454
249.126387
249.180197
249.239072
249.303209
249.372819
249.448123
249.529348
249.616733
249.710519
249.810955
249.918287
250.032761
250.15462
250.284096
250.421406
250.566752
250.720306
250.882211
251.052567
251.231426
251.418775
251.614532
251.818522
252.030471
252.249981
252.47651
252.709353
252.947613
253.190172
253.435659
253.682414
253.928449
254.171401
254.408484
254.636436
254.851458
255.049151
255.224445
255.371526
255.481561
255.546706
255.558074
255.505636
255.378113
255.162865
254.845786
254.411207
254.058841
248.905237
248.909164
248.917035
248.928881
248.944749
248.964697
248.988801
249.017149
249.049844
249.087001
249.128751
249.175237
249.226616
249.283055
249.344736
249.41185
249.484598
249.563192
249.64785
249.738797
249.836261
249.940474
250.051668
250.170068
250.295897
250.429362
250.570657
250.719955
250.877401
251.043103
251.21713
251.399494
251.590149
251.788968
251.995739
252.210143
252.431739
252.659945
252.894011
253.133
253.375758
253.62088
253.866679
254.111145
254.351906
254.586178
254.810712
255.021743
255.214924
255.385261
255.527039
255.631586
255.691299
255.697578
255.640731
255.50988
255.292862
254.976128
254.54466
254.19693
248.986827
248.990937
248.999175
249.011569
249.028167
249.049025
249.074216
249.103828
249.137958
249.176719
249.220239
249.268654
249.322116
249.380786
249.444838
249.514455
249.589829
249.67116
249.758655
249.852525
249.952984
250.060248
250.174529
250.296034
250.424964
250.561503
250.70582
250.858061
251.018339
251.186736
251.363283
251.547962
251.740688
251.941298
252.14954
252.365059
252.587372
252.81586
253.049736
253.288028
253.52955
253.772871
254.016283
254.257765
254.494942
254.72504
254.944839
255.150618
255.338099
255.502383
255.637885
255.736132
255.789741
255.790382
255.728694
255.594193
255.375183
255.058665
254.63026
254.286867
249.067399
249.071671
249.080233
249.093113
249.110355
249.132017
249.158167
249.18889
249.224281
249.264449
249.309515
249.359612
249.414884
249.475486
249.541582
249.613347
249.690962
249.774616
249.864504
249.960822
250.06377
250.173545
250.290342
250.414349
250.545743
250.684687
250.831324
250.985772
251.148118
251.318411
251.496654
251.682794
251.876711
252.078209
252.286999
252.50269
252.724765
252.952568
253.185281
253.421902
253.661218
253.901777
254.141857
254.379431
254.612129
254.837194
255.05144
255.251199
255.432268
255.589853
255.718501
255.80995
255.857039
255.851711
255.784933
255.646614
255.425518
255.109184
254.683859
254.344683
249.148286
249.152705
249.161558
249.174876
249.192699
249.215083
249.242096
249.273816
249.310337
249.351762
249.398207
249.449799
249.506675
249.568982
249.636877
249.710523
249.790092
249.87576
249.967709
250.066121
250.171179
250.283065
250.401955
250.528015
250.661403
250.802256
250.950695
251.10681
251.270663
251.442271
251.621609
251.80859
252.003064
252.2048
252.413479
252.628674
252.849837
253.076281
253.307161
253.541447
253.777905
254.015069
254.251206
254.484289
254.711957
254.931475
255.139693
255.332997
255.507255
255.657765
255.779194
255.863515
255.903806
255.892291
255.82027
255.678041
255.454823
255.138686
254.716484
254.38149
249.230672
249.235225
249.244347
249.258066
249.276422
249.299467
249.327267
249.359898
249.397448
249.440016
249.487712
249.540657
249.59898
249.662821
249.732326
249.80765
249.888953
249.976399
250.070155
250.17039
250.277271
250.390962
250.51162
250.639392
250.774413
250.9168
251.066646
251.224019
251.38895
251.561432
251.741407
251.928762
252.123313
252.324801
252.532874
252.747076
252.966831
253.191425
253.419987
253.651471
253.884628
254.117981
254.349802
254.578074
254.800461
255.01427
255.216413
255.40336
255.571095
255.715066
255.828285
255.904744
255.937705
255.919635
255.84213
255.695854
255.470458
255.154518
254.735476
254.404664
249.315592
249.32027
249.329641
249.343732
249.362581
249.38624
249.41477
249.448242
249.486742
249.530363
249.579209
249.633395
249.693041
249.758279
249.829247
249.906088
249.98895
250.077986
250.173348
250.275191
250.383665
250.498916
250.621083
250.750294
250.88666
251.030277
251.181214
251.339511
251.505176
251.678172
251.858414
252.045758
252.239991
252.440825
252.647878
252.860664
253.07858
253.300886
253.52669
253.754923
253.984323
254.213405
254.440436
254.663409
254.880004
255.087558
255.283026
255.462938
255.623358
255.759831
255.865526
255.934641
255.960678
255.936382
255.853675
255.703599
255.476244
255.160692
254.744963
254.418407
249.403939
249.408735
249.418339
249.432779
249.452091
249.476323
249.505534
249.539792
249.579176
249.623776
249.673689
249.729021
249.789888
249.856411
249.928717
250.00694
250.091216
250.181684
250.278484
250.381753
250.491627
250.608234
250.731692
250.862111
250.999579
251.14417
251.295928
251.45487
251.620975
251.794181
251.974374
252.161381
252.354962
252.554798
252.76048
252.971493
253.187209
253.406864
253.629542
253.85416
254.079441
254.303894
254.525788
254.743125
254.953606
255.154603
255.343121
255.515758
255.668669
255.797514
255.89564
255.957433
255.976616
255.946201
255.858427
255.704703
255.475547
255.160533
254.748245
254.426016
249.496495
249.5014
249.511224
249.525992
249.545739
249.570509
249.600359
249.635352
249.675564
249.721077
249.771982
249.82838
249.890376
249.958083
250.031619
250.111105
250.196666
250.288428
250.386515
250.491051
250.602154
250.719934
250.844491
250.975912
251.114267
251.259605
251.411948
251.571286
251.737575
251.910723
252.090592
252.276979
252.469618
252.668161
252.872171
253.081111
253.294324
253.511025
253.730281
253.950992
254.171871
254.391425
254.607924
254.819385
255.023533
255.217778
255.399176
255.5644
255.709695
255.83084
255.921363
255.975835
255.988202
255.95174
255.858997
255.701743
255.470915
255.156566
254.747827
254.429991
249.593942
249.598951
249.608982
249.624058
249.644214
249.66949
249.699939
249.735621
249.776605
249.82297
249.874799
249.932184
249.995224
250.064022
250.138684
250.219322
250.306047
250.398972
250.498207
250.60386
250.716031
250.834813
250.960288
251.092522
251.231564
251.37744
251.530147
251.689655
251.85589
252.028738
252.208032
252.393544
252.584981
252.781968
252.984045
253.190649
253.401102
253.614599
253.83019
254.046763
254.263024
254.477479
254.688405
254.893833
255.091516
255.2789
255.453095
255.610838
255.74846
255.861844
255.944718
255.991847
255.997405
255.954932
255.857286
255.696591
255.464195
255.150618
254.745522
254.432136
249.696893
249.702
249.712224
249.72759
249.748128
249.773877
249.804885
249.841209
249.882913
249.930068
249.982752
250.041048
250.105047
250.174842
250.250529
250.332207
250.419977
250.513936
250.61418
250.720801
250.833883
250.953501
251.079717
251.212577
251.352109
251.498316
251.651175
251.810628
251.97658
252.148891
252.327368
252.511759
252.701745
252.896928
253.096825
253.300849
253.508307
253.718376
253.930095
254.142344
254.353831
254.563065
254.768344
254.967724
255.159
255.339674
255.506933
255.657613
255.78817
255.893098
255.967823
256.007264
256.005793
255.957188
255.854594
255.690471
255.456558
255.143822
254.742439
254.433551
249.805908
249.811105
249.82151
249.837145
249.858038
249.884225
249.915752
249.95267
249.995037
250.042918
250.096385
250.155513
250.220383
250.291078
250.367685
250.45029
250.53898
250.633841
250.734952
250.842389
250.95622
251.076501
251.203276
251.33657
251.47639
251.622717
251.775506
251.934675
252.100105
252.271631
252.449036
252.632044
252.82031
253.013415
253.21085
253.412012
253.616185
253.822533
254.030082
254.237705
254.444106
254.647801
254.847097
255.040072
255.224551
255.398081
255.557902
255.700924
255.823688
255.920828
255.987938
256.020133
256.012006
255.957597
255.850346
255.683058
255.447859
255.136161
254.738639
254.434335
249.921508
249.926789
249.93736
249.953242
249.974461
250.001051
250.033052
250.070512
250.113482
250.162023
250.216197
250.276072
250.34172
250.413214
250.49063
250.574041
250.663523
250.759145
250.860974
250.969069
251.08348
251.204246
251.33139
251.46492
251.60482
251.751051
251.903543
252.062193
252.226857
252.397348
252.573423
252.754784
252.941062
253.131815
253.326515
253.524537
253.72515
253.927503
254.13061
254.333341
254.534399
254.732305
254.925381
255.11173
255.28921
255.455416
255.607651
255.742903
255.857816
255.947175
256.006729
256.031775
256.017124
255.957064
255.845327
255.67505
255.438738
255.128233
254.734696
254.435052
250.044194
250.04955
250.060272
250.076378
250.097892
250.124845
250.157273
250.195218
250.238728
250.287855
250.342655
250.403187
250.469514
250.541698
250.619804
250.703895
250.79403
250.890267
250.992657
251.101243
251.216058
251.337122
251.464441
251.598001
251.737768
251.883679
252.035644
252.193537
252.357192
252.526397
252.700889
252.880345
253.064377
253.25252
253.444227
253.638857
253.835662
254.033781
254.232221
254.429847
254.625364
254.817303
255.004003
255.18359
255.353961
255.512755
255.657336
255.784766
255.891778
255.973326
256.025321
256.043246
256.022127
255.956501
255.840386
255.667243
255.429948
255.120759
254.731309
254.436386
250.174454
250.179877
250.190732
250.207036
250.228811
250.256084
250.288887
250.327257
250.371237
250.420871
250.476209
250.5373
250.604198
250.676956
250.755626
250.840259
250.930902
251.027598
251.130382
251.239282
251.354314
251.475481
251.602768
251.736144
251.875553
252.020913
252.172112
252.329003
252.491397
252.659062
252.831712
253.009005
253.190531
253.375809
253.564275
253.755272
253.948044
254.141719
254.335304
254.527665
254.717518
254.903412
255.083711
255.256581
255.419969
255.571581
255.708866
255.828991
255.9275
256.0008
256.044932
256.05554
256.027846
255.95662
255.836146
255.660197
255.422002
255.114222
254.728937
254.438789
250.312771
250.318252
250.329222
250.345696
250.367694
250.39524
250.428362
250.467092
250.511466
250.561522
250.617301
250.678846
250.7462
250.819405
250.898503
250.983531
251.074524
251.17151
251.27451
251.383535
251.498584
251.619643
251.74668
251.879642
252.018454
252.163015
252.313192
252.468815
252.629676
252.795521
252.966044
253.140883
253.319609
253.501723
253.686645
253.873705
254.062135
254.251057
254.439474
254.626252
254.810116
254.989628
255.163174
255.32895
255.484942
255.628909
255.758362
255.870545
255.961124
256.026646
256.063312
256.066951
256.032996
255.956456
255.831889
255.653378
255.414503
255.108316
254.727337
254.442047
250.459633
250.465162
250.476226
250.492841
250.515022
250.54279
250.576169
250.615187
250.659873
250.710259
250.766377
250.828262
250.895947
250.969464
251.048842
251.134108
251.225283
251.32238
251.425407
251.534356
251.649213
251.769943
251.896497
252.028805
252.166771
252.310274
252.459161
252.613243
252.772291
252.936031
253.104137
253.276229
253.451859
253.630512
253.811594
253.994423
254.178222
254.362106
254.545077
254.726007
254.903627
255.076517
255.243088
255.401568
255.549988
255.686164
255.807678
255.911859
255.994508
256.0523
256.081588
256.078379
256.038309
255.956621
255.828139
255.647249
255.407868
255.103429
254.726878
254.446518
250.615537
250.621102
250.632239
250.648961
250.671281
250.699217
250.732788
250.772017
250.816927
250.867542
250.923889
250.985992
251.053874
251.127559
251.207062
251.2924
251.383578
251.480598
251.583451
251.692115
251.806558
251.926729
252.052562
252.183967
252.320831
252.463013
252.61034
252.762605
252.91956
253.080912
253.246317
253.415376
253.587627
253.762541
253.93951
254.117842
254.296754
254.475358
254.652656
254.827526
254.998712
255.16481
255.324258
255.47532
255.616069
255.744377
255.857891
255.954021
256.02871
256.078771
256.100709
256.090709
256.04461
255.957885
255.825618
255.642488
255.402742
255.100181
254.728476
254.452795
250.780988
250.786579
250.797766
250.814559
250.836971
250.865015
250.898708
250.938064
250.983103
251.033842
251.090299
251.152489
251.220428
251.294125
251.373589
251.45882
251.549814
251.646557
251.749025
251.857183
251.970981
252.090353
252.215214
252.345458
252.480954
252.621543
252.767033
252.9172
253.071778
253.230455
253.392874
253.558619
253.727216
253.898122
254.070721
254.244315
254.418117
254.591241
254.762696
254.931372
255.096032
255.2553
255.40765
255.551392
255.68466
255.805399
255.911346
255.998898
256.065239
256.107293
256.121704
256.104816
256.052657
255.960916
255.824927
255.639648
255.399642
255.099064
254.733017
254.461343
250.956509
250.962112
250.973323
250.99015
251.012603
251.040692
251.074429
251.113825
251.158892
251.20964
251.26608
251.328219
251.396061
251.469607
251.548854
251.633791
251.7244
251.820653
251.922514
252.02993
252.142838
252.261155
252.384779
252.513588
252.647433
252.786138
252.929494
253.077259
253.22915
253.384841
253.543957
253.706069
253.87069
254.037266
254.205173
254.373707
254.542077
254.709399
254.874687
255.036841
255.19464
255.346732
255.491618
255.62765
255.753007
255.865692
255.963512
256.042971
256.101373
256.135777
256.142977
256.119494
256.06155
255.965054
255.825591
255.638393
255.398336
255.099916
254.739672
254.472074
251.142635
251.148236
251.159444
251.176264
251.198705
251.226772
251.260472
251.299813
251.344799
251.395435
251.451723
251.513662
251.581247
251.654469
251.733312
251.817755
251.907767
252.003308
252.104326
252.210756
252.322517
252.439513
252.561626
252.688716
252.820618
252.957141
253.098059
253.243114
253.392007
253.544398
253.699897
253.858064
254.0184
254.180342
254.343258
254.506442
254.669101
254.830355
254.989224
255.144622
255.295344
255.440064
255.577315
255.705488
255.822812
255.927347
256.016972
256.088314
256.138793
256.165597
256.165673
256.135708
256.072116
255.971024
255.828253
255.63931
255.399367
255.103251
254.748937
254.485469
251.339921
251.345507
251.356682
251.373453
251.395823
251.423795
251.457373
251.496558
251.541349
251.591744
251.647738
251.70932
251.776478
251.849192
251.927436
252.011176
252.10037
252.194965
252.294895
252.400083
252.510432
252.625831
252.746148
252.871227
253.000889
253.134926
253.273099
253.415134
253.560719
253.7095
253.861077
254.014999
254.170758
254.327786
254.485448
254.643036
254.799763
254.954756
255.107048
255.255573
255.399152
255.536491
255.666169
255.786627
255.89616
255.992906
256.073857
256.136726
256.179028
256.19807
256.190933
256.154462
256.085252
255.979632
255.833656
255.643086
255.403381
255.109687
254.761412
254.50212
251.548943
251.554498
251.565611
251.582286
251.604524
251.632326
251.66569
251.704613
251.749088
251.799107
251.854656
251.915718
251.982269
252.054282
252.13172
252.214537
252.302681
252.396085
252.494671
252.598347
252.707005
252.820518
252.93874
253.061501
253.188608
253.319838
253.454937
253.593619
253.735559
253.880392
254.027705
254.17704
254.32788
254.479653
254.63172
254.783373
254.93383
255.082224
255.2276
255.368908
255.504994
255.63459
255.756313
255.868646
255.969937
256.058385
256.131079
256.185834
256.22028
256.231852
256.217777
256.175065
256.100492
255.990595
255.841653
255.649682
255.41042
255.11932
254.77723
254.522177
251.770301
251.775809
251.786828
251.803359
251.825402
251.852953
251.886008
251.924558
251.968591
252.018091
252.073038
252.133407
252.199166
252.270278
252.346695
252.428362
252.515214
252.607174
252.704151
252.806041
252.912722
253.024054
253.139877
253.26001
253.384244
253.512343
253.644042
253.779043
253.917008
254.057562
254.200285
254.344709
254.490313
254.63652
254.782692
254.928122
255.072033
255.213568
255.351787
255.485657
255.614048
255.735725
255.849339
255.953421
256.046371
256.126452
256.19086
256.237511
256.264146
256.268326
256.247422
256.198603
256.118823
256.004819
255.85309
255.659898
255.421248
255.132889
254.797116
254.546354
252.004618
252.010063
252.020954
252.037292
252.059072
252.086291
252.118937
252.156998
252.200456
252.24929
252.303473
252.362972
252.427746
252.497749
252.572924
252.653207
252.738521
252.828778
252.923876
253.023698
253.128111
253.236964
253.350084
253.467275
253.58832
253.71297
253.840949
253.971948
254.105621
254.241584
254.379411
254.518629
254.658714
254.79909
254.93912
255.078106
255.215278
255.349796
255.480737
255.607096
255.727774
255.841576
255.9472
256.043236
256.128151
256.199435
256.255234
256.293547
256.312218
256.308924
256.281167
256.226267
256.141349
256.023339
255.868948
255.674669
255.436767
255.151272
254.821931
254.575503
252.252544
252.257908
252.268637
252.284728
252.306178
252.332976
252.36511
252.402562
252.44531
252.493325
252.546574
252.605017
252.668606
252.737286
252.810991
252.889647
252.973167
253.061453
253.154392
253.251856
253.353702
253.459766
253.569864
253.683791
253.801317
253.922183
254.046104
254.172761
254.301801
254.432832
254.565424
254.699098
254.833332
254.967547
255.10111
255.23333
255.363446
255.49063
255.613979
255.732508
255.845145
255.950727
256.047994
256.135576
256.211995
256.274832
256.322325
256.352573
256.363533
256.353006
256.318633
256.257889
256.168068
256.046284
255.889456
255.694305
255.457344
255.174876
254.852113
254.610074
252.514755
252.520021
252.530551
252.546343
252.567389
252.593679
252.625194
252.661912
252.703808
252.750846
252.802987
252.860185
252.922383
252.989519
253.061519
253.138299
253.219764
253.305806
253.396301
253.491114
253.590088
253.693051
253.799809
253.910147
254.023826
254.140579
254.260111
254.382098
254.506179
254.631961
254.759006
254.886839
255.014935
255.142722
255.269574
255.394808
255.517678
255.637377
255.753022
255.863659
255.968253
256.065684
256.154739
256.234112
256.30163
256.355723
256.394706
256.416764
256.419955
256.402196
256.361258
256.29476
256.200158
256.074746
255.915642
255.719782
255.483919
255.204615
254.888561
254.650957
252.791964
252.797112
252.807407
252.822844
252.843414
252.869102
252.899888
252.935746
252.976644
253.022543
253.073398
253.129154
253.189751
253.255117
253.325171
253.399821
253.478963
253.56248
253.65024
253.742098
253.837889
253.937431
254.040521
254.146937
254.256429
254.368725
254.483523
254.600493
254.719269
254.839453
254.960609
255.082258
255.20388
255.324906
255.444716
255.562638
255.677941
255.789832
255.897451
255.999868
256.09608
256.185
256.265458
256.336194
256.395117
256.440738
256.471459
256.485565
256.48122
256.45646
256.409191
256.337175
256.238031
256.109229
255.948078
255.751727
255.517158
255.241182
254.93199
254.698872
253.084927
253.089939
253.09996
253.114986
253.135004
253.159997
253.189943
253.22481
253.264563
253.309159
253.358545
253.412664
253.471446
253.534814
253.60268
253.674943
253.751494
253.832206
253.916941
254.005544
254.097843
254.193648
254.292751
254.394919
254.499899
254.607411
254.71715
254.82878
254.941935
255.056216
255.171185
255.286369
255.401252
255.515273
255.627823
255.738245
255.845826
255.949794
256.04932
256.143505
256.231384
256.311918
256.38399
256.445717
256.495771
256.53273
256.555072
256.561171
256.549291
256.517581
256.46407
256.386661
256.283125
256.151099
255.988079
255.791413
255.558302
255.285793
254.983604
254.755015
253.394451
253.399307
253.409017
253.423574
253.442965
253.467169
253.496161
253.529907
253.568366
253.611492
253.659228
253.711509
253.768262
253.829402
253.894835
253.964455
254.038144
254.11577
254.197186
254.282232
254.370729
254.46248
254.55727
254.654861
254.754995
254.857388
254.96173
255.067684
255.174882
255.282924
255.391377
255.499769
255.60759
255.714287
255.819264
255.921875
256.021424
256.117162
256.208281
256.293913
256.373125
256.444915
256.508211
256.561204
256.602636
256.631163
256.64535
256.643664
256.624474
256.586043
256.526526
256.443962
256.336276
256.201267
256.03661
255.839847
255.60839
255.339512
255.044486
254.820474
253.721405
253.726088
253.735449
253.74948
253.768167
253.791488
253.819413
253.851907
253.888925
253.930417
253.97632
254.026567
254.081077
254.139763
254.202524
254.269248
254.339812
254.414077
254.491892
254.57309
254.657488
254.744883
254.835055
254.927764
255.022746
255.119717
255.218364
255.318351
255.41931
255.520846
255.622527
255.723891
255.824435
255.92362
256.020862
256.115534
256.206962
256.294422
256.377136
256.454271
256.524933
256.588168
256.642345
256.686345
256.718971
256.738948
256.744921
256.735444
256.708984
256.663913
256.598505
256.510932
256.39926
256.261447
256.095337
255.898659
255.669021
255.403914
255.116202
254.896806
254.066731
254.07122
254.080193
254.093642
254.11155
254.133892
254.160639
254.19175
254.22718
254.266871
254.310761
254.358776
254.410833
254.466838
254.526687
254.590263
254.657438
254.728069
254.802
254.879059
254.959059
255.041795
255.127043
255.21456
255.304081
255.39532
255.487967
255.581685
255.676111
255.770852
255.865486
255.959557
256.052575
256.144013
256.233304
256.319843
256.402977
256.48201
256.556196
256.624738
256.686785
256.740861
256.785967
256.821038
256.844943
256.856478
256.854365
256.837249
256.803692
256.752172
256.681081
256.588718
256.473289
256.332902
256.165564
255.969182
255.741553
255.480374
255.200144
254.985407
254.431466
254.435743
254.444291
254.457101
254.474155
254.495427
254.520883
254.550483
254.584177
254.621906
254.663604
254.709193
254.758587
254.811687
254.868387
254.928566
254.99209
255.058815
255.128581
255.201212
255.276518
255.354291
255.434306
255.516319
255.600064
255.685255
255.771584
255.858715
255.946291
256.033924
256.121199
256.207669
256.292854
256.376242
256.457283
256.535387
256.609925
256.680227
256.745574
256.805202
256.858295
256.903441
256.939695
256.966057
256.981462
256.984782
256.974818
256.950306
256.909904
256.852197
256.775691
256.67881
256.559894
256.417198
256.248886
256.053034
255.827621
255.570536
255.297974
255.087939
254.816794
254.820841
254.828928
254.841045
254.857173
254.877285
254.901346
254.929312
254.961133
254.996746
255.036082
255.079062
255.125597
255.175585
255.228916
255.285468
255.345104
255.407676
255.473023
255.540968
255.611319
255.683867
255.758387
255.834634
255.912347
255.991239
256.071007
256.151322
256.23183
256.312154
256.391887
256.470595
256.547813
256.623045
256.695762
256.765396
256.831345
256.892968
256.949582
257.000459
257.044321
257.080327
257.107585
257.12515
257.132019
257.127135
257.109377
257.077562
257.030444
256.966708
256.884968
256.783769
256.661579
256.516791
256.347719
256.152599
255.929582
255.678504
255.412027
255.206728
255.224038
255.227837
255.235429
255.246803
255.261937
255.280805
255.30337
255.329586
255.359401
255.392752
255.429568
255.469766
255.513255
255.559934
255.609689
255.662396
255.717919
255.776106
255.836797
255.899813
255.964962
256.032038
256.100815
256.171051
256.242488
256.314844
256.38782
256.461094
256.534321
256.607132
256.679134
256.749905
256.818998
256.885933
256.950202
257.011263
257.06854
257.121422
257.16926
257.210893
257.245572
257.272504
257.290851
257.299724
257.298187
257.285249
257.259868
257.220945
257.167322
257.097784
257.011051
256.905781
256.780568
256.633937
256.464344
256.270177
256.049751
255.805353
255.544642
255.344114
255.654706
255.658242
255.665306
255.675887
255.689965
255.707508
255.728482
255.752839
255.780524
255.811475
255.845618
255.882871
255.923141
255.966325
256.01231
256.060969
256.112166
256.165751
256.221562
256.279422
256.339142
256.400514
256.463318
256.527316
256.592251
256.657851
256.723821
256.789848
256.855597
256.920712
256.98481
257.047487
257.108311
257.166825
257.22254
257.274941
257.32348
257.367576
257.406177
257.438614
257.464183
257.482139
257.491695
257.492022
257.482245
257.461444
257.428652
257.38285
257.32297
257.247889
257.156432
257.047368
256.919406
256.771199
256.60134
256.408359
256.190726
255.953286
255.698439
255.502717
256.110559
256.113816
256.120323
256.130068
256.143028
256.159175
256.17847
256.200866
256.226309
256.254734
256.286067
256.320226
256.357118
256.396638
256.438675
256.483102
256.529783
256.57857
256.629302
256.681804
256.735889
256.791355
256.847983
256.905542
256.963781
257.022434
257.081215
257.139822
257.19793
257.255195
257.311251
257.365709
257.418157
257.468157
257.515247
257.558935
257.598704
257.633595
257.663016
257.686338
257.7029
257.712007
257.712923
257.704878
257.687059
257.658614
257.618648
257.566223
257.500354
257.420013
257.324121
257.211551