/*--------------------------------*- C++ -*----------------------------------*\
  =========                 |
  \\      /  F ield         | OpenFOAM: The Open Source CFD Toolbox
   \\    /   O peration     | Website:  https://openfoam.org
    \\  /    A nd           | Version:  11
     \\/     M anipulation  |
\*---------------------------------------------------------------------------*/
FoamFile
{
    format      ascii;
    class       volScalarField;
    location    "8.97528e-06";
    object      T.gas;
}
// * * * * * * * * * * * * * * * * * * * * * * * * * * * * * * * * * * * * * //

dimensions      [0 0 0 1 0 0 0];

internalField   nonuniform List<scalar> 
120000
(
293.036344
293.036347
293.036352
293.036361
293.036372
293.036386
293.036403
293.036424
293.036449
293.036477
293.03651
293.036548
293.036591
293.03664
293.036695
293.036758
293.036829
293.036909
293.037
293.037102
293.037218
293.037348
293.037495
293.037661
293.037848
293.03806
293.038299
293.038569
293.038875
293.039222
293.039615
293.04006
293.040566
293.041141
293.041796
293.042542
293.043393
293.044366
293.04548
293.046757
293.048225
293.049917
293.051871
293.054134
293.056765
293.059834
293.063429
293.06766
293.072668
293.078629
293.085774
293.094402
293.104908
293.117818
293.133837
293.153922
293.179379
293.212005
293.254279
293.309636
293.042332
293.04234
293.042356
293.042381
293.042414
293.042456
293.042507
293.042569
293.042642
293.042727
293.042825
293.042937
293.043066
293.043212
293.043377
293.043564
293.043776
293.044015
293.044285
293.044589
293.044932
293.045318
293.045753
293.046244
293.046798
293.047422
293.048126
293.048922
293.04982
293.050835
293.051982
293.053281
293.054751
293.056417
293.058306
293.06045
293.062886
293.065656
293.068808
293.072401
293.076499
293.08118
293.086533
293.092661
293.099689
293.107758
293.117036
293.12772
293.140042
293.154274
293.170735
293.189799
293.211902
293.237555
293.267342
293.301935
293.342087
293.388625
293.442425
293.504361
293.04611
293.046123
293.04615
293.04619
293.046244
293.046313
293.046398
293.046499
293.046619
293.046758
293.046918
293.047102
293.047312
293.04755
293.04782
293.048125
293.048469
293.048857
293.049294
293.049786
293.05034
293.050963
293.051663
293.05245
293.053336
293.054333
293.055453
293.056715
293.058135
293.059734
293.061535
293.063564
293.065852
293.068432
293.071343
293.074628
293.078338
293.082529
293.087266
293.092621
293.098679
293.105534
293.113294
293.122082
293.132037
293.143318
293.156103
293.170595
293.187023
293.205641
293.226739
293.250638
293.277691
293.308291
293.342866
293.381876
293.425817
293.475208
293.530587
293.592501
293.048561
293.048579
293.048615
293.04867
293.048744
293.048838
293.048954
293.049092
293.049255
293.049445
293.049663
293.049913
293.050197
293.05052
293.050885
293.051297
293.051761
293.052283
293.05287
293.053528
293.054268
293.055097
293.056027
293.057069
293.058239
293.059549
293.061019
293.062667
293.064514
293.066586
293.06891
293.071517
293.074441
293.077723
293.081405
293.085538
293.090177
293.095384
293.10123
293.107794
293.115163
293.123436
293.132725
293.143151
293.154854
293.167986
293.182717
293.199238
293.217756
293.238503
293.261732
293.287721
293.316772
293.349215
293.385404
293.425723
293.470579
293.520407
293.575666
293.636838
293.050212
293.050234
293.050279
293.050348
293.05044
293.050557
293.050701
293.050874
293.051076
293.051311
293.051582
293.051891
293.052242
293.05264
293.05309
293.053595
293.054164
293.054802
293.055517
293.056318
293.057215
293.058218
293.059339
293.060592
293.061993
293.063558
293.065307
293.06726
293.069442
293.07188
293.074602
293.077643
293.081039
293.084832
293.089069
293.0938
293.099083
293.104982
293.111568
293.11892
293.127126
293.136284
293.146501
293.157896
293.170603
293.184766
293.200546
293.218121
293.237683
293.259445
293.28364
293.31052
293.340361
293.37346
293.410141
293.450752
293.495666
293.545283
293.60003
293.660862
293.05138
293.051407
293.05146
293.051541
293.051649
293.051788
293.051957
293.05216
293.052398
293.052673
293.05299
293.053352
293.053762
293.054226
293.054748
293.055335
293.055993
293.05673
293.057554
293.058474
293.059502
293.060648
293.061926
293.06335
293.064937
293.066704
293.068672
293.070863
293.073303
293.076018
293.079039
293.082402
293.086143
293.090305
293.094935
293.100084
293.105811
293.112178
293.119256
293.127123
293.135865
293.145577
293.156363
293.168339
293.181631
293.19638
293.212737
293.230871
293.250965
293.27322
293.297855
293.325107
293.355236
293.388522
293.425269
293.465806
293.510486
293.559687
293.613816
293.675975
293.052258
293.052288
293.052349
293.052441
293.052564
293.052722
293.052914
293.053144
293.053413
293.053725
293.054083
293.05449
293.054952
293.055473
293.056059
293.056716
293.057451
293.058272
293.059188
293.060209
293.061346
293.062611
293.064018
293.065581
293.067318
293.069248
293.07139
293.073768
293.076408
293.079337
293.082587
293.086193
293.090191
293.094626
293.099543
293.104993
293.111035
293.11773
293.125148
293.133365
293.142466
293.152542
293.163696
293.176039
293.189693
293.204794
293.221489
293.239937
293.260316
293.282818
293.307652
293.335045
293.365246
293.398521
293.435161
293.47548
293.519815
293.568527
293.622005
293.684562
293.052964
293.052997
293.053065
293.053166
293.053304
293.053478
293.053691
293.053945
293.054243
293.054587
293.054982
293.05543
293.055938
293.05651
293.057152
293.05787
293.058672
293.059566
293.060562
293.06167
293.0629
293.064266
293.065781
293.067461
293.069323
293.071387
293.073673
293.076203
293.079005
293.082107
293.085538
293.089336
293.093536
293.098182
293.103319
293.109
293.115279
293.12222
293.129889
293.138362
293.147722
293.158058
293.169469
293.182065
293.195965
293.211298
293.228208
293.246849
293.267393
293.290024
293.314943
293.34237
293.372543
293.405718
293.442175
293.482213
293.526156
293.57435
293.627166
293.689624
293.053572
293.053608
293.053682
293.053793
293.053942
293.054133
293.054365
293.054641
293.054965
293.055339
293.055768
293.056254
293.056803
293.057421
293.058114
293.058887
293.05975
293.06071
293.061777
293.062961
293.064274
293.065728
293.067339
293.069121
293.071092
293.073271
293.07568
293.078341
293.081281
293.084528
293.088113
293.092071
293.09644
293.101261
293.10658
293.112448
293.118921
293.126059
293.13393
293.142607
293.152171
293.162709
293.17432
293.187109
293.201191
293.216694
293.233757
293.252529
293.273176
293.295876
293.320825
293.348233
293.37833
293.411362
293.447598
293.487325
293.530853
293.578514
293.630664
293.692751
293.054129
293.054168
293.054248
293.054368
293.054529
293.054735
293.054985
293.055283
293.055631
293.056034
293.056494
293.057015
293.057604
293.058265
293.059005
293.05983
293.060749
293.06177
293.062902
293.064157
293.065546
293.067082
293.06878
293.070655
293.072725
293.075009
293.077529
293.080308
293.083372
293.086749
293.090471
293.094571
293.099088
293.104064
293.109543
293.115576
293.122217
293.129527
293.137572
293.146423
293.156161
293.166872
293.178649
293.191598
293.205831
293.221471
293.238652
293.257522
293.27824
293.300979
293.325926
293.353287
293.38328
293.416146
293.452139
293.491538
293.534639
293.58176
293.633239
293.694804
293.054668
293.05471
293.054796
293.054924
293.055098
293.055317
293.055585
293.055904
293.056277
293.056706
293.057197
293.057753
293.05838
293.059083
293.059868
293.060743
293.061716
293.062795
293.06399
293.065313
293.066774
293.068388
293.070168
293.072131
293.074295
293.076678
293.079303
293.082192
293.085372
293.088871
293.092721
293.096954
293.10161
293.106728
293.112355
293.11854
293.125336
293.132804
293.141007
293.150018
293.159913
293.170778
293.182706
293.195796
293.21016
293.225918
293.2432
293.262149
293.282918
293.305677
293.330605
293.3579
293.387775
293.420458
293.456197
293.495256
293.53792
293.584494
293.6353
293.696258
293.055212
293.055257
293.055348
293.055485
293.05567
293.055904
293.05619
293.05653
293.056926
293.057383
293.057904
293.058494
293.059158
293.059902
293.060733
293.061657
293.062683
293.06382
293.065077
293.066466
293.067998
293.069688
293.071549
293.073598
293.075853
293.078333
293.081059
293.084056
293.087349
293.090966
293.094938
293.0993
293.104089
293.109345
293.115113
293.121443
293.128387
293.136004
293.144358
293.15352
293.163563
293.174573
293.18664
293.199862
293.214346
293.23021
293.247581
293.266596
293.287405
293.31017
293.335067
293.362286
293.392029
293.424519
293.459992
293.498703
293.540923
293.586943
293.637073
293.697374
293.055776
293.055824
293.055921
293.056067
293.056264
293.056513
293.056816
293.057177
293.057598
293.058082
293.058634
293.059258
293.05996
293.060746
293.061622
293.062596
293.063675
293.06487
293.066189
293.067644
293.069248
293.071014
293.072956
293.07509
293.077436
293.080012
293.082839
293.085942
293.089347
293.09308
293.097174
293.101662
293.106582
293.111973
293.11788
293.124351
293.131439
293.139202
293.147702
293.157009
293.167196
293.178344
293.190544
293.20389
293.218487
293.234449
293.2519
293.270973
293.291812
293.314575
293.339431
293.366563
293.396166
293.428453
293.463652
293.502005
293.543774
293.589236
293.638686
293.698302
293.056374
293.056425
293.056528
293.056683
293.056892
293.057156
293.057478
293.05786
293.058305
293.058818
293.059401
293.060061
293.060802
293.06163
293.062552
293.063576
293.06471
293.065963
293.067346
293.068869
293.070545
293.072387
293.074411
293.076632
293.079069
293.081742
293.084671
293.087881
293.091397
293.095247
293.099462
293.104076
293.109126
293.114651
293.120695
293.127307
293.134537
293.142443
293.151087
293.160536
293.170862
293.182146
293.194473
293.207938
293.222642
293.238697
293.256221
293.275344
293.296206
293.318959
293.343765
293.370801
293.400255
293.432331
293.467247
293.505236
293.546546
293.591444
293.64021
293.699125
293.057015
293.057069
293.057178
293.057343
293.057564
293.057844
293.058185
293.058589
293.05906
293.059602
293.060218
293.060914
293.061695
293.062567
293.063537
293.064612
293.065802
293.067116
293.068563
293.070155
293.071904
293.073825
293.075932
293.078241
293.080771
293.083542
293.086574
293.089892
293.09352
293.097488
293.101826
293.106566
293.111746
293.117405
293.123587
293.130338
293.13771
293.145758
293.154544
293.164132
293.174595
293.18601
293.198462
293.212041
293.226848
293.242989
293.26058
293.279747
293.300625
293.323359
293.348108
293.37504
293.404337
293.436194
293.470819
293.508435
293.549281
293.593608
293.641686
293.699889
293.05771
293.057767
293.057882
293.058056
293.058291
293.058587
293.058947
293.059375
293.059872
293.060444
293.061094
293.061827
293.062649
293.063567
293.064586
293.065715
293.066962
293.068338
293.069851
293.071514
293.073339
293.07534
293.077532
293.079932
293.082557
293.085427
293.088564
293.091991
293.095734
293.099821
293.104281
293.109149
293.114461
293.120255
293.126574
293.133464
293.140977
293.149166
293.158092
293.167818
293.178416
293.189959
293.202532
293.216222
293.231126
293.247349
293.265001
293.284205
293.305092
293.327801
293.352484
293.379305
293.408436
293.440065
293.474391
293.511628
293.552001
293.595754
293.643139
293.700624
293.058465
293.058526
293.058648
293.058832
293.05908
293.059393
293.059774
293.060225
293.06075
293.061353
293.062038
293.06281
293.063675
293.064639
293.06571
293.066894
293.068201
293.06964
293.071222
293.072957
293.07486
293.076944
293.079223
293.081714
293.084436
293.087408
293.090652
293.094191
293.09805
293.102257
293.106842
293.111839
293.117282
293.123212
293.129668
293.136699
293.144352
293.152681
293.161746
293.171609
293.182338
293.194007
293.206697
293.220494
293.235492
293.25179
293.269498
293.288733
293.309621
293.332298
293.356908
293.383608
293.412565
293.443958
293.477978
293.514827
293.554722
293.597893
293.644582
293.701344
293.059289
293.059353
293.059482
293.059677
293.059939
293.06027
293.060672
293.061148
293.061702
293.062338
293.063059
293.063872
293.064781
293.065793
293.066916
293.068158
293.069526
293.071031
293.072683
293.074494
293.076477
293.078645
293.081014
293.083599
293.086421
293.089496
293.092849
293.096501
293.100477
293.104807
293.109518
293.114645
293.120222
293.126287
293.132882
293.140051
293.147844
293.156313
293.165516
293.175513
293.186372
293.198164
293.210968
293.224868
293.239953
293.256322
293.27408
293.29334
293.314222
293.336858
293.361387
293.387959
293.416734
293.447883
293.481587
293.518041
293.557451
293.600035
293.646023
293.702058
293.06019
293.060258
293.060394
293.0606
293.060877
293.061226
293.06165
293.062153
293.062736
293.063406
293.064165
293.065019
293.065975
293.067038
293.068215
293.069515
293.070947
293.07252
293.074245
293.076134
293.078198
293.080453
293.082913
293.085596
293.088518
293.0917
293.095163
293.09893
293.103026
293.10748
293.112319
293.117576
293.123287
293.129489
293.136222
293.143531
293.151463
293.160071
293.16941
293.179539
293.190525
293.202437
293.215352
293.229349
293.244518
293.260953
293.278754
293.298031
293.318901
293.341489
293.365929
293.392364
293.420948
293.451843
293.485224
293.521275
293.560193
293.602183
293.647466
293.702774
293.061177
293.061249
293.061393
293.06161
293.061901
293.06227
293.062717
293.063247
293.063861
293.064566
293.065364
293.066262
293.067265
293.06838
293.069614
293.070976
293.072473
293.074116
293.075916
293.077884
293.080033
293.082377
293.084931
293.087712
293.090738
293.094028
293.097603
293.101488
293.105705
293.110284
293.115252
293.120641
293.126487
293.132825
293.139697
293.147145
293.155216
293.163961
293.173434
293.183694
293.194804
293.206833
293.219854
293.233945
293.249192
293.265686
293.283524
293.302812
293.323661
293.346193
293.370535
293.396825
293.42521
293.455843
293.488893
293.524533
293.562951
293.604343
293.648916
293.703494
293.062258
293.062334
293.062485
293.062714
293.063022
293.06341
293.063882
293.064439
293.065086
293.065827
293.066666
293.067609
293.068662
293.069831
293.071123
293.072547
293.074112
293.075827
293.077704
293.079754
293.081989
293.084425
293.087075
293.089957
293.093088
293.096488
293.100179
293.104182
293.108522
293.113227
293.118325
293.123848
293.129829
293.136304
293.143314
293.150901
293.15911
293.16799
293.177596
293.187984
293.199215
293.211357
293.224479
293.238659
293.253979
293.270526
293.288395
293.307686
293.328508
293.350975
293.375211
293.401347
293.429523
293.459886
293.492595
293.527817
293.565728
293.606515
293.650374
293.70422
293.063443
293.063522
293.063682
293.063924
293.064248
293.064657
293.065153
293.06574
293.06642
293.067199
293.06808
293.06907
293.070173
293.071398
293.072751
293.07424
293.075874
293.077664
293.07962
293.081753
293.084078
293.086606
293.089355
293.09234
293.095579
293.099091
293.102897
293.107021
293.111485
293.116318
293.121547
293.127204
293.13332
293.139933
293.147081
293.154805
293.163151
293.172165
293.181901
293.192414
293.203764
293.216014
293.229234
293.243497
293.258884
293.275478
293.29337
293.312657
293.333442
293.355837
293.379958
293.405931
293.433889
293.463973
293.496333
293.531128
293.568526
293.608702
293.651843
293.704956
293.064741
293.064825
293.064994
293.065248
293.065589
293.06602
293.066542
293.067158
293.067874
293.068691
293.069616
293.070654
293.07181
293.073092
293.074507
293.076063
293.077769
293.079635
293.081672
293.083892
293.086307
293.088931
293.09178
293.09487
293.098218
293.101844
293.105769
293.110014
293.114604
293.119566
293.124926
293.130717
293.136969
293.143719
293.151004
293.158865
293.167346
293.176493
293.186356
293.196991
293.208455
293.220809
293.234122
293.248463
293.26391
293.280544
293.298452
293.317727
293.338469
293.360782
293.384779
293.410579
293.43831
293.468106
293.500109
293.534469
293.571345
293.610905
293.653322
293.705702
293.066165
293.066254
293.066431
293.066698
293.067057
293.06751
293.068059
293.068707
293.069458
293.070316
293.071286
293.072373
293.073584
293.074925
293.076404
293.078029
293.079808
293.081753
293.083873
293.086181
293.088688
293.09141
293.094361
293.097558
293.101017
293.104758
293.108802
293.113171
293.117888
293.122979
293.128472
293.134396
293.140785
293.147671
293.155092
293.163089
293.171702
293.180979
293.190967
293.20172
293.213294
293.225749
293.239148
293.253562
293.269063
293.28573
293.303647
293.322901
293.34359
293.365812
293.389676
293.415295
293.442789
293.472287
293.503924
293.537841
293.574188
293.613125
293.654815
293.70646
293.067727
293.06782
293.068006
293.068287
293.068664
293.06914
293.069716
293.070397
293.071185
293.072084
293.073101
293.074239
293.075506
293.076908
293.078453
293.080148
293.082003
293.084028
293.086233
293.088631
293.091233
293.094054
293.097109
293.100414
293.103986
293.107844
293.112008
293.116501
293.121345
293.126567
293.132192
293.138251
293.144775
293.151797
293.159353
293.167483
293.176227
293.185631
293.195741
293.206608
293.218288
293.230837
293.244319
293.258798
293.274347
293.291039
293.308956
293.328182
293.348808
293.370931
293.394652
293.420079
293.447328
293.476519
293.507779
293.541245
293.577057
293.615364
293.656322
293.707232
293.069439
293.069536
293.069732
293.070028
293.070424
293.070923
293.071528
293.072241
293.073067
293.07401
293.075074
293.076265
293.07759
293.079054
293.080666
293.082434
293.084366
293.086473
293.088765
293.091254
293.093953
293.096875
293.100036
293.10345
293.107136
293.111112
293.115398
293.120016
293.124988
293.13034
293.136098
293.142291
293.148949
293.156105
293.163795
293.172056
293.180929
293.190456
293.200684
293.211662
293.223442
293.236081
293.249638
293.264177
293.279765
293.296475
293.314384
293.333573
293.354128
293.376141
293.399709
293.424935
293.451928
293.480802
293.511678
293.544683
293.579952
293.617624
293.657924
293.70802
293.071316
293.071419
293.071624
293.071934
293.07235
293.072874
293.073508
293.074255
293.07512
293.076107
293.07722
293.078466
293.079849
293.081378
293.083058
293.0849
293.086911
293.089101
293.091482
293.094065
293.096861
293.099886
293.103154
293.106679
293.11048
293.114575
293.118984
293.123727
293.128827
293.134309
293.140199
293.146525
293.153317
293.160606
293.168427
293.176818
293.185816
293.195463
293.205805
293.216888
293.228764
293.241486
293.255112
293.269703
293.285324
293.302044
293.319935
293.339077
293.359552
293.381445
293.404851
293.429865
293.456592
293.48514
293.515622
293.548159
293.582876
293.619907
293.659725
293.708826
293.073375
293.073483
293.073699
293.074023
293.074459
293.075008
293.075672
293.076455
293.07736
293.078392
293.079555
293.080856
293.0823
293.083893
293.085645
293.087561
293.089653
293.091929
293.094399
293.097077
293.099973
293.103101
293.106477
293.110115
293.114032
293.118246
293.122778
293.127646
293.132875
293.138487
293.144508
293.150966
293.157889
293.16531
293.17326
293.181776
293.190896
293.20066
293.211111
293.222295
293.23426
293.24706
293.260748
293.275383
293.291028
293.307749
293.325615
293.3447
293.365084
293.386848
293.41008
293.434873
293.461324
293.489534
293.519613
293.551673
293.585832
293.622214
293.66155
293.709653
293.075633
293.075746
293.075972
293.076312
293.076769
293.077343
293.078038
293.078856
293.079803
293.080881
293.082096
293.083453
293.084958
293.086619
293.088442
293.090435
293.092608
293.094971
293.097533
293.100306
293.103302
293.106536
293.11002
293.113771
293.117805
293.122139
293.126794
293.131788
293.137144
293.142885
293.149037
293.155625
293.162678
293.170227
293.178304
293.186943
293.19618
293.206056
293.216611
293.22789
293.239939
293.252809
293.266551
293.281223
293.296884
293.313596
293.331427
293.350446
293.370729
293.392353
293.415401
293.439961
293.466125
293.493989
293.523655
293.555229
293.588821
293.62455
293.663401
293.710504
293.07811
293.078228
293.078464
293.07882
293.079298
293.079898
293.080624
293.08148
293.082468
293.083593
293.084861
293.086275
293.087844
293.089572
293.091468
293.093539
293.095795
293.098245
293.100899
293.103769
293.106867
293.110206
293.1138
293.117665
293.121815
293.12627
293.131047
293.136166
293.141649
293.147518
293.153798
293.160515
293.167696
293.17537
293.18357
293.192327
293.201679
293.211661
293.222315
293.233682
293.245808
293.258741
293.272531
293.287231
293.302898
293.319593
293.337378
293.356321
293.376491
293.397964
293.420818
293.445135
293.471001
293.498508
293.527751
293.558829
293.591848
293.626916
293.665283
293.711383
293.080826
293.08095
293.081197
293.081569
293.082067
293.082694
293.083453
293.084346
293.085377
293.08655
293.087871
293.089344
293.090976
293.092773
293.094742
293.096893
293.099232
293.101771
293.104518
293.107486
293.110686
293.114131
293.117835
293.121813
293.12608
293.130654
293.135553
293.140796
293.146405
293.152401
293.158807
293.16565
293.172956
293.180752
293.189071
293.197943
293.207403
293.217486
293.228233
293.239682
293.251878
293.264866
293.278694
293.293413
293.309078
293.325744
293.343474
293.362329
293.382377
293.403688
293.426335
293.450397
293.475955
293.503094
293.531904
293.562479
293.594916
293.629316
293.667199
293.712293
293.083806
293.083934
293.084192
293.084581
293.085101
293.085755
293.086546
293.087477
293.088551
293.089773
293.091148
293.09268
293.094377
293.096243
293.098287
293.100517
293.102941
293.105569
293.10841
293.111476
293.114778
293.118329
293.122143
293.126234
293.130618
293.13531
293.14033
293.145696
293.151429
293.157549
293.16408
293.171045
293.178472
293.186387
293.19482
293.203802
293.213364
293.223544
293.234376
293.2459
293.258158
293.271192
293.285049
293.299778
293.31543
293.332059
293.349722
293.368478
293.388392
293.409529
293.431959
293.455754
293.480992
293.507753
293.536121
293.566182
293.598028
293.631755
293.669155
293.713239
293.087074
293.087208
293.087477
293.087882
293.088424
293.089106
293.08993
293.090899
293.092017
293.093288
293.094717
293.09631
293.098071
293.100008
293.102127
293.104437
293.106946
293.109663
293.112598
293.115762
293.119166
293.122823
293.126746
293.13095
293.135448
293.140259
293.145398
293.150885
293.156739
293.16298
293.169632
293.176717
293.184261
293.19229
293.200833
293.209918
293.219578
293.229845
293.240756
293.252347
293.264658
293.277731
293.291608
293.306337
293.321965
293.338545
293.356129
293.374776
293.394543
293.415494
293.437694
293.461212
293.486119
293.512491
293.540405
293.569944
293.601192
293.634239
293.671157
293.714228
293.090658
293.090798
293.091078
293.0915
293.092064
293.092774
293.093631
293.094639
293.095801
293.097122
293.098606
293.100259
293.102085
293.104092
293.106287
293.108677
293.111271
293.114077
293.117106
293.120368
293.123874
293.127636
293.131667
293.135982
293.140594
293.14552
293.150777
293.156382
293.162355
293.168715
293.175484
293.182684
293.190341
293.198478
293.207125
293.216308
293.226058
293.236406
293.247388
293.259038
293.271393
293.284494
293.298381
293.313098
293.328692
293.345211
293.362706
293.38123
293.400839
293.421592
293.44355
293.466778
293.491342
293.517313
293.544764
293.57377
293.604412
293.636772
293.673211
293.715267
293.094591
293.094736
293.095028
293.095466
293.096053
293.09679
293.097681
293.098728
293.099935
293.101305
293.102844
293.104557
293.106449
293.108526
293.110796
293.113266
293.115944
293.11884
293.121962
293.12532
293.128927
293.132793
293.136931
293.141355
293.14608
293.151119
293.156491
293.162211
293.168298
293.174773
293.181655
293.188966
293.19673
293.20497
293.213714
293.222988
293.23282
293.243243
293.254286
293.265985
293.278375
293.291494
293.30538
293.320075
293.335623
293.35207
293.369462
293.387851
293.407289
293.427831
293.449535
293.47246
293.496669
293.522228
293.549204
293.577669
293.607697
293.639363
293.675326
293.716364
293.098905
293.099056
293.099359
293.099814
293.100423
293.101189
293.102113
293.103199
293.10445
293.10587
293.107464
293.109236
293.111193
293.113341
293.115686
293.118235
293.120997
293.123981
293.127195
293.130649
293.134355
293.138323
293.142566
293.147098
293.151931
293.157081
293.162564
293.168396
293.174594
293.181179
293.188168
293.195585
293.20345
293.211787
293.22062
293.229977
293.239885
293.250371
293.261468
293.273206
293.285621
293.298746
293.31262
293.327281
293.342771
293.359132
293.37641
293.394651
293.413904
293.434222
293.455658
293.478268
293.50211
293.527245
293.553736
293.58165
293.611054
293.64202
293.677513
293.717529
293.10364
293.103796
293.10411
293.104582
293.105213
293.106006
293.106964
293.108088
293.109383
293.110853
293.112501
293.114334
293.116355
293.118572
293.120991
293.123619
293.126463
293.129534
293.132838
293.136386
293.140189
293.144257
293.148603
293.153239
293.158178
293.163435
293.169025
293.174964
293.181269
293.187957
293.195049
293.202564
293.210524
293.21895
293.227866
293.237298
293.247271
293.257812
293.268952
293.280719
293.293146
293.306267
293.320117
293.334731
293.35015
293.366413
293.383562
293.401641
293.420697
293.440777
293.461932
293.484213
293.507675
293.532375
293.55837
293.585723
293.614495
293.644754
293.679783
293.718774
293.108835
293.108997
293.109322
293.10981
293.110464
293.111284
293.112275
293.113438
293.114776
293.116294
293.117997
293.119888
293.121973
293.124258
293.126749
293.129454
293.13238
293.135535
293.138928
293.142568
293.146465
293.15063
293.155075
293.159812
293.164853
293.170212
293.175905
293.181946
293.188351
293.195138
293.202326
293.209932
293.217978
293.226485
293.235476
293.244973
293.255001
293.265588
293.276759
293.288544
293.300972
293.314076
293.327889
293.342444
293.357777
293.373928
293.390934
293.408838
293.427682
293.44751
293.46837
293.490309
293.513379
293.53763
293.563119
293.5899
293.618032
293.647576
293.682151
293.720113
293.114537
293.114705
293.11504
293.115545
293.11622
293.117068
293.118091
293.119291
293.120673
293.122239
293.123994
293.125942
293.128089
293.130441
293.133004
293.135784
293.138788
293.142026
293.145504
293.149233
293.153221
293.15748
293.16202
293.166853
293.171991
293.177448
293.183238
293.189374
293.195874
293.202753
293.210028
293.217718
293.225843
293.234422
293.243476
293.253029
293.263102
293.273722
293.284914
293.296704
293.309121
293.322195
293.335957
293.350438
293.365673
293.381697
293.398546
293.416259
293.434876
293.454438
293.474989
293.496572
293.519236
293.543028
293.567997
293.594197
293.62168
293.650503
293.684634
293.721565
293.120797
293.12097
293.121316
293.121837
293.122533
293.123408
293.124462
293.125699
293.127122
293.128735
293.130541
293.132545
293.134753
293.137169
293.139801
293.142653
293.145734
293.149051
293.152611
293.156425
293.160501
293.164849
293.169479
293.174403
293.179633
293.185182
293.191062
293.197287
293.203874
293.210836
293.218191
293.225957
293.23415
293.242791
293.251899
293.261496
293.271603
293.282245
293.293444
293.305226
293.317619
293.330649
293.344345
293.358738
293.373859
293.389741
293.406418
293.423925
293.4423
293.461581
293.481808
293.503022
293.525266
293.548585
293.573024
293.598632
293.625457
293.653551
293.687252
293.723148
293.127671
293.127849
293.128206
293.128742
293.129459
293.130359
293.131443
293.132716
293.134179
293.135837
293.137692
293.139751
293.142017
293.144495
293.147192
293.150114
293.153268
293.15666
293.160299
293.164193
293.168351
293.172783
293.177498
293.182508
293.187823
293.193456
293.19942
293.205727
293.212392
293.219429
293.226855
293.234685
293.242937
293.251629
293.260779
293.270408
293.280537
293.291187
293.30238
293.314141
293.326494
293.339465
293.353081
293.367371
293.382362
293.398086
293.414575
293.431861
293.449978
293.468963
293.488851
293.50968
293.531491
293.554324
293.578221
293.603227
293.629385
293.656742
293.690031
293.724889
293.135222
293.135405
293.135771
293.136322
293.137059
293.137983
293.139097
293.140403
293.141905
293.143605
293.145508
293.147618
293.149939
293.152477
293.155236
293.158224
293.161446
293.164909
293.168622
293.172592
293.176827
293.181336
293.18613
293.191218
293.196612
293.202321
293.20836
293.214739
293.221473
293.228576
293.236061
293.243946
293.252245
293.260976
293.270156
293.279805
293.289941
293.300586
293.311759
293.323483
293.335782
293.348678
293.362198
293.376368
293.391213
293.406764
293.423047
293.440095
293.457939
293.47661
293.496144
293.516574
293.537938
293.560272
293.583615
293.608006
293.633488
293.66056
293.693001
293.726816
293.143518
293.143706
293.144081
293.144646
293.145402
293.146349
293.147491
293.148829
293.150367
293.152108
293.154056
293.156213
293.158586
293.161179
293.163997
293.167046
293.170331
293.173861
293.177642
293.181681
293.185986
293.190567
293.195432
293.200591
293.206054
293.211832
293.217936
293.224378
293.231171
293.238327
293.245862
293.253788
293.262122
293.270879
293.280076
293.289731
293.29986
293.310484
293.321621
293.333293
293.345521
293.358327
293.371734
293.385766
293.400449
293.415808
293.43187
293.448662
293.466215
293.484558
293.503721
293.523736
293.544638
293.566459
293.589235
293.613003
293.637799
293.664717
293.696196
293.728966
293.152638
293.15283
293.153215
293.153793
293.154565
293.155534
293.156702
293.15807
293.159642
293.16142
293.163409
293.165611
293.168032
293.170675
293.173547
293.176652
293.179996
293.183585
293.187427
293.191529
293.195897
293.200541
293.205469
293.21069
293.216213
293.222049
293.228209
293.234703
293.241543
293.248742
293.256313
293.264268
293.272623
293.281393
293.290591
293.300236
293.310343
293.32093
293.332016
293.343618
293.355758
293.368456
293.381732
293.39561
293.410111
293.425261
293.441083
293.457603
293.474847
293.492844
293.51162
293.531205
293.55163
293.572925
293.595121
293.618253
293.642354
293.669151
293.699661
293.731381
293.162669
293.162865
293.163257
293.163847
293.164636
293.165624
293.166815
293.168211
293.169813
293.171626
293.173652
293.175895
293.178358
293.181048
293.183967
293.187122
293.190518
293.194161
293.198057
293.202213
293.206636
293.211335
293.216316
293.221589
293.227162
293.233045
293.239249
293.245782
293.252658
293.259886
293.267479
293.27545
293.283811
293.292577
293.301762
293.311381
293.321449
293.331982
293.342998
293.354514
293.366547
293.379118
293.392245
293.405949
293.420251
293.435173
293.450736
293.466965
293.483883
293.501516
293.519888
293.539027