/*--------------------------------*- C++ -*----------------------------------*\
  =========                 |
  \\      /  F ield         | OpenFOAM: The Open Source CFD Toolbox
   \\    /   O peration     | Website:  https://openfoam.org
    \\  /    A nd           | Version:  11
     \\/     M anipulation  |
\*---------------------------------------------------------------------------*/
FoamFile
{
    format      ascii;
    class       volScalarField;
    location    "8.97528e-06";
    object      thermalPhaseChange:Tsat.gas_liquid;
}
// * * * * * * * * * * * * * * * * * * * * * * * * * * * * * * * * * * * * * //

dimensions      [0 0 0 1 0 0 0];

internalField   nonuniform List<scalar> 
120000
(
295.826329
295.82633
295.826332
295.826336
295.826341
295.826348
295.826356
295.826365
295.826376
295.826389
295.826404
295.826421
295.826441
295.826463
295.826488
295.826517
295.826549
295.826586
295.826627
295.826674
295.826726
295.826786
295.826852
295.826928
295.827013
295.827109
295.827218
295.827341
295.827481
295.827638
295.827817
295.82802
295.82825
295.828512
295.82881
295.82915
295.829538
295.829981
295.830488
295.83107
295.831739
295.83251
295.833401
295.834434
295.835634
295.837034
295.838676
295.840609
295.842899
295.845626
295.848898
295.852853
295.857676
295.863612
295.870992
295.880268
295.892063
295.907241
295.92701
295.953076
295.829054
295.829058
295.829065
295.829077
295.829092
295.829111
295.829134
295.829162
295.829196
295.829234
295.829279
295.82933
295.829389
295.829455
295.82953
295.829616
295.829712
295.829821
295.829944
295.830082
295.830239
295.830415
295.830613
295.830837
295.831089
295.831373
295.831694
295.832057
295.832466
295.832929
295.833452
295.834044
295.834715
295.835475
295.836337
295.837316
295.838428
295.839693
295.841134
295.842777
295.844651
295.846794
295.849245
295.852055
295.855279
295.858985
295.863252
295.868172
295.873855
295.880431
295.888053
295.896903
295.907193
295.919175
295.933143
295.949438
295.968451
295.990622
296.016437
296.046401
295.830775
295.830781
295.830794
295.830812
295.830836
295.830868
295.830906
295.830953
295.831007
295.831071
295.831144
295.831227
295.831323
295.831432
295.831554
295.831694
295.83185
295.832027
295.832227
295.832451
295.832703
295.832987
295.833307
295.833666
295.83407
295.834524
295.835035
295.835611
295.836259
295.836989
295.837811
295.838738
295.839783
295.840962
295.842293
295.843795
295.845493
295.847411
295.849581
295.852036
295.854815
295.857963
295.86153
295.865574
295.870162
295.875367
295.881277
295.887989
295.895613
295.904275
295.914118
295.925303
295.93801
295.95244
295.96882
295.987398
296.008447
296.032264
296.059168
296.089501
295.831892
295.8319
295.831917
295.831942
295.831976
295.832019
295.832071
295.832135
295.832209
295.832295
295.832395
295.832509
295.832638
295.832785
295.832952
295.83314
295.833351
295.833589
295.833857
295.834157
295.834494
295.834873
295.835297
295.835773
295.836306
295.836905
295.837576
295.838328
295.839172
295.840119
295.841181
295.842372
295.84371
295.845211
295.846897
295.84879
295.850916
295.853304
295.855987
295.859002
295.86239
295.866198
295.870479
295.87529
295.880699
295.886779
295.893613
295.901293
295.909924
295.919619
295.930508
295.942733
295.956451
295.971837
295.989083
296.008402
296.030025
296.054206
296.081226
296.111388
295.832645
295.832655
295.832676
295.832707
295.832749
295.832802
295.832868
295.832947
295.833039
295.833146
295.83327
295.833411
295.833571
295.833752
295.833957
295.834188
295.834447
295.834738
295.835065
295.83543
295.835839
295.836297
295.836809
295.837381
295.83802
295.838735
295.839534
295.840427
295.841424
295.842538
295.843783
295.845175
295.846729
295.848466
295.850408
295.852577
295.855001
295.85771
295.860736
295.864119
295.867898
295.87212
295.876837
295.882107
295.887992
295.894564
295.901902
295.910094
295.919235
295.929435
295.94081
295.953494
295.967631
295.983382
296.000923
296.02045
296.042178
296.066343
296.093208
296.123057
295.833178
295.83319
295.833214
295.833251
295.8333
295.833363
295.833441
295.833533
295.833642
295.833767
295.833912
295.834077
295.834264
295.834475
295.834714
295.834981
295.835282
295.835618
295.835994
295.836414
295.836883
295.837406
295.83799
295.83864
295.839365
295.840172
295.841072
295.842074
295.843189
295.844431
295.845814
295.847353
295.849067
295.850974
295.853098
295.855461
295.858091
295.861017
295.864273
295.867897
295.871927
295.876411
295.881397
295.886943
295.893109
295.899963
295.907582
295.916049
295.925457
295.935906
295.947512
295.960397
295.9747
295.990573
296.008184
296.027717
296.049378
296.073391
296.100005
296.129494
295.833578
295.833592
295.833619
295.833661
295.833718
295.833789
295.833877
295.833982
295.834105
295.834247
295.83441
295.834596
295.834807
295.835044
295.835312
295.835611
295.835947
295.836322
295.83674
295.837206
295.837725
295.838303
295.838945
295.839659
295.840453
295.841335
295.842314
295.843402
295.84461
295.84595
295.847438
295.84909
295.850922
295.852956
295.855212
295.857715
295.860491
295.863571
295.866986
295.870774
295.874974
295.87963
295.884792
295.890513
295.896854
295.903881
295.911666
295.92029
295.929843
295.940423
295.952138
295.965109
295.979466
295.995356
296.01294
296.032396
296.053918
296.077723
296.10405
296.133158
295.8339
295.833915
295.833946
295.833992
295.834055
295.834134
295.834232
295.834347
295.834483
295.83464
295.83482
295.835025
295.835257
295.835517
295.83581
295.836138
295.836504
295.836913
295.837367
295.837873
295.838435
295.839058
295.839751
295.840518
295.84137
295.842313
295.843358
295.844516
295.845798
295.847218
295.84879
295.85053
295.852456
295.854587
295.856946
295.859556
295.862443
295.865638
295.869171
295.873079
295.877402
295.882181
295.887467
295.89331
295.89977
295.906911
295.914804
295.923527
295.933167
295.943818
295.955586
295.968585
295.982944
295.998803
296.016317
296.035655
296.057008
296.08058
296.106601
296.13532
295.834177
295.834194
295.834227
295.834278
295.834346
295.834433
295.834539
295.834665
295.834813
295.834983
295.835179
295.835401
295.835651
295.835933
295.836249
295.836602
295.836996
295.837434
295.837922
295.838462
295.839062
295.839726
295.840462
295.841277
295.842178
295.843175
295.844276
295.845494
295.84684
295.848327
295.84997
295.851784
295.853788
295.856001
295.858444
295.861141
295.864119
295.867406
295.871035
295.875039
295.879458
295.884335
295.889716
295.895653
295.902203
295.909428
295.917399
295.92619
295.935886
295.946578
295.958369
295.971371
295.985705
296.001508
296.018929
296.038132
296.059298
296.082625
296.108331
296.136657
295.834431
295.834449
295.834485
295.83454
295.834614
295.834707
295.834822
295.834958
295.835117
295.8353
295.83551
295.835748
295.836017
295.836319
295.836656
295.837033
295.837452
295.837918
295.838436
295.839009
295.839643
295.840345
295.841121
295.841978
295.842925
295.843969
295.845122
295.846394
295.847797
295.849344
295.85105
295.852931
295.855003
295.857288
295.859806
295.86258
295.865637
295.869004
295.872715
295.876802
295.881304
295.886263
295.891724
295.897739
295.904363
295.911657
295.919689
295.928532
295.938268
295.948986
295.960785
295.973773
295.988069
296.003803
296.021119
296.040175
296.061145
296.084219
296.109606
296.137535
295.834677
295.834696
295.834735
295.834794
295.834873
295.834973
295.835096
295.835241
295.835411
295.835607
295.835831
295.836085
295.836371
295.836692
295.83705
295.83745
295.837894
295.838387
295.838933
295.839537
295.840204
295.840942
295.841756
295.842653
295.843643
295.844733
295.845934
295.847257
295.848714
295.850317
295.852082
295.854024
295.856161
295.858512
295.861098
295.863944
295.867073
295.870515
295.8743
295.878463
295.88304
295.888073
295.893608
295.899692
295.906381
295.913735
295.921818
295.930704
295.94047
295.951205
295.963003
295.975968
295.990216
296.005873
296.023077
296.041979
296.062747
296.085562
296.110626
296.138157
295.834925
295.834946
295.834987
295.83505
295.835134
295.835241
295.835372
295.835526
295.835707
295.835916
295.836154
295.836423
295.836726
295.837066
295.837445
295.837867
295.838336
295.838855
295.839429
295.840064
295.840764
295.841536
295.842387
295.843324
295.844356
295.84549
295.846739
295.848111
295.849619
295.851277
295.853099
295.855101
295.857299
295.859714
295.862367
295.86528
295.868479
295.871991
295.875848
295.880082
295.88473
295.889833
295.895435
295.901584
295.908333
295.91574
295.92387
295.932793
295.942584
295.953329
295.965119
295.978056
295.99225
296.007824
296.024909
296.043652
296.064213
296.086767
296.111504
296.138635
295.835183
295.835205
295.835249
295.835315
295.835405
295.835519
295.835657
295.835822
295.836014
295.836235
295.836487
295.836772
295.837092
295.837451
295.837851
295.838296
295.838789
295.839334
295.839937
295.840602
295.841335
295.842142
295.84303
295.844007
295.84508
295.846259
295.847554
295.848975
295.850535
295.852247
295.854125
295.856185
295.858445
295.860923
295.86364
295.866619
295.869886
295.873467
295.877393
295.881696
295.886413
295.891583
295.897249
295.903459
295.910265
295.917723
295.925895
295.93485
295.944661
295.955412
295.96719
295.980093
295.994229
296.009714
296.026676
296.045256
296.065606
296.087894
296.112303
296.139032
295.835455
295.835479
295.835526
295.835596
295.835692
295.835812
295.835959
295.836133
295.836337
295.836571
295.836837
295.837138
295.837476
295.837855
295.838276
295.838744
295.839261
295.839834
295.840466
295.841162
295.841928
295.84277
295.843696
295.844712
295.845827
295.847051
295.848392
295.849863
295.851475
295.853241
295.855175
295.857294
295.859614
295.862154
295.864936
295.867981
295.871315
295.874963
295.878957
295.883328
295.888112
295.893347
295.899076
295.905345
295.912205
295.91971
295.927921
295.936905
295.946734
295.957486
295.969248
295.982113
295.996186
296.011579
296.028414
296.046826
296.066961
296.08898
296.113058
296.139384
295.835748
295.835773
295.835823
295.835898
295.835999
295.836126
295.836282
295.836466
295.836681
295.836929
295.83721
295.837528
295.837884
295.838282
295.838725
295.839217
295.83976
295.84036
295.841022
295.841749
295.842549
295.843428
295.844392
295.845448
295.846607
295.847875
295.849264
295.850785
295.852449
295.854269
295.85626
295.858437
295.860818
295.863422
295.866267
295.869378
295.872778
295.876494
295.880556
295.884994
295.889843
295.895142
295.900932
295.907258
295.914169
295.921719
295.929967
295.938977
295.948819
295.959569
295.971311
295.984135
295.998141
296.013437
296.030141
296.048381
296.068298
296.090045
296.11379
296.139711
295.836065
295.836091
295.836144
295.836223
295.83633
295.836465
295.83663
295.836825
295.837052
295.837313
295.83761
295.837945
295.83832
295.838739
295.839205
295.83972
295.84029
295.840919
295.841611
295.842371
295.843206
295.844121
295.845124
295.846222
295.847424
295.848739
295.850176
295.851747
295.853464
295.85534
295.857388
295.859625
295.862067
295.864733
295.867643
295.87082
295.874286
295.878069
295.882197
295.886701
295.891616
295.896978
295.902827
295.909208
295.916169
295.923762
295.932043
295.941077
295.950929
295.961674
295.973392
295.98617
296.000105
296.0153
296.031869
296.049933
296.069629
296.091101
296.11451
296.140026
295.83641
295.836437
295.836493
295.836577
295.83669
295.836833
295.837007
295.837213
295.837453
295.837728
295.838041
295.838394
295.838789
295.839229
295.839718
295.840259
295.840856
295.841514
295.842237
295.843031
295.843901
295.844855
295.845898
295.847038
295.848285
295.849647
295.851133
295.852756
295.854527
295.856458
295.858564
295.860861
295.863365
295.866095
295.869069
295.872312
295.875845
295.879694
295.883889
295.888458
295.893437
295.89886
295.904767
295.911202
295.91821
295.925843
295.934156
295.94321
295.953069
295.963805
295.975496
295.988225
296.002085
296.017176
296.033604
296.05149
296.07096
296.092155
296.115225
296.140334
295.836786
295.836815
295.836874
295.836963
295.837082
295.837234
295.837417
295.837635
295.837888
295.838178
295.838507
295.838878
295.839294
295.839756
295.840269
295.840837
295.841462
295.84215
295.842906
295.843734
295.844641
295.845633
295.846718
295.847902
295.849194
295.850604
295.852141
295.853816
295.855641
295.857629
295.859794
295.862152
295.864718
295.867511
295.870551
295.873859
295.877458
295.881374
295.885635
295.890269
295.89531
295.900794
295.906758
295.913244
295.920298
295.927969
295.936311
295.945382
295.955245
295.965969
295.977628
295.990304
296.004085
296.019067
296.035352
296.053054
296.072296
296.09321
296.115939
296.14064
295.837197
295.837228
295.83729
295.837384
295.837511
295.83767
295.837864
295.838093
295.83836
295.838666
295.839012
295.839403
295.839839
295.840325
295.840863
295.841457
295.842112
295.842831
295.84362
295.844484
295.845429
295.846461
295.847587
295.848816
295.850155
295.851614
295.853202
295.854931
295.856812
295.858857
295.861082
295.8635
295.866129
295.868987
295.872092
295.875466
295.879131
295.883113
295.887439
295.892137
295.897241
295.902783
295.908802
295.915338
295.922435
295.930142
295.93851
295.947595
295.957458
295.968167
295.979791
295.99241
296.006108
296.020976
296.037114
296.054629
296.073639
296.094268
296.116655
296.140947
295.837648
295.83768
295.837746
295.837845
295.837979
295.838147
295.838351
295.838593
295.838874
295.839195
295.83956
295.83997
295.840429
295.840938
295.841502
295.842125
295.842809
295.843561
295.844384
295.845285
295.846268
295.847342
295.848512
295.849786
295.851173
295.852681
295.854322
295.856105
295.858042
295.860146
295.862431
295.864911
295.867603
295.870525
295.873695
295.877135
295.880867
295.884914
295.889305
295.894067
295.899231
295.90483
295.910903
295.917487
295.924625
295.932365
295.940756
295.949852
295.959712
295.970401
295.981987
295.994545
296.008155
296.022906
296.038893
296.056217
296.07499
296.095333
296.117375
296.141255
295.838141
295.838176
295.838245
295.83835
295.83849
295.838668
295.838883
295.839138
295.839433
295.839772
295.840155
295.840586
295.841067
295.841601
295.842192
295.842843
295.843559
295.844344
295.845203
295.846141
295.847164
295.84828
295.849494
295.850815
295.852251
295.85381
295.855504
295.857342
295.859336
295.861499
295.863845
295.866388
295.869143
295.87213
295.875366
295.878871
295.882668
295.886781
295.891236
295.896059
295.901283
295.906939
295.913062
295.919692
295.92687
295.93464
295.94305
295.952154
295.962008
295.972674
295.984217
295.996709
296.010228
296.024858
296.040688
296.057817
296.076351
296.096404
296.118098
296.141566
295.838682
295.838719
295.838792
295.838902
295.83905
295.839237
295.839464
295.839732
295.840043
295.840398
295.840801
295.841253
295.841758
295.842318
295.842936
295.843618
295.844365
295.845184
295.846079
295.847056
295.848121
295.849279
295.850539
295.851907
295.853393
295.855005
295.856752
295.858646
295.860699
295.862921
295.865328
295.867933
295.870753
295.873804
295.877106
295.880677
295.884539
295.888717
295.893234
295.898119
295.9034
295.909111
295.915284
295.921957
295.929171
295.936968
295.945396
295.954504
295.964348
295.974986
295.986482
295.998905
296.012328
296.026832
296.042502
296.059432
296.077723
296.097482
296.118827
296.141881
295.839276
295.839314
295.839391
295.839507
295.839663
295.83986
295.840098
295.84038
295.840707
295.841081
295.841503
295.841978
295.842507
295.843093
295.84374
295.844452
295.845232
295.846087
295.847019
295.848036
295.849142
295.850345
295.851651
295.853068
295.854604
295.856269
295.858071
295.860022
295.862133
295.864416
295.866884
295.869553
295.872437
295.875553
295.878919
295.882555
295.886482
295.890724
295.895303
295.900248
295.905586
295.911349
295.917569
295.924284
295.931531
295.939353
295.947794
295.956903
295.966733
295.97734
295.988785
296.001133
296.014456
296.028829
296.044335
296.061062
296.079106
296.098569
296.119561
296.142201
295.839926
295.839967
295.840048
295.84017
295.840334
295.840541
295.840791
295.841088
295.841431
295.841823
295.842267
295.842764
295.843318
295.843931
295.844608
295.845351
295.846166
295.847056
295.848027
295.849084
295.850233
295.851481
295.852834
295.854301
295.855889
295.857607
295.859465
295.861473
295.863643
295.865987
295.868518
295.87125
295.874197
295.877378
295.880809
295.88451
295.888502
295.892806
295.897446
295.902449
295.907842
295.913655
295.919921
295.926674
295.933952
295.941795
295.950246
295.959352
295.969164
295.979736
295.991125
296.003395
296.016613
296.030851
296.046188
296.062708
296.080501
296.099664
296.120302
296.142526
295.84064
295.840682
295.840767
295.840896
295.841068
295.841286
295.841549
295.84186
295.84222
295.842632
295.843097
295.843617
295.844197
295.844838
295.845545
295.846321
295.847171
295.848098
295.849108
295.850207
295.8514
295.852694
295.854095
295.855612
295.857252
295.859025
295.860939
295.863005
295.865235
295.86764
295.870233
295.873028
295.87604
295.879285
295.882781
295.886546
295.8906
295.894966
295.899666
295.904726
295.910172
295.916033
295.922342
295.929131
295.936436
295.944297
295.952755
295.961854
295.971644
295.982175
295.993505
296.005691
296.018799
296.032898
296.048062
296.06437
296.081909
296.10077
296.121051
296.142857
295.841422
295.841467
295.841556
295.841691
295.841873
295.842101
295.842377
295.842704
295.843081
295.843512
295.843999
295.844544
295.84515
295.845821
295.846558
295.847368
295.848253
295.849218
295.850268
295.851409
295.852647
295.853988
295.855438
295.857006
295.858699
295.860527
295.862498
295.864623
295.866913
295.869379
295.872034
295.874893
295.877969
295.881278
295.884838
295.888666
295.892783
295.897209
295.901967
295.907081
295.912578
295.918486
295.924834
295.931656
295.938986
295.946861
295.955321
295.96441
295.974173
295.98466
295.995925
296.008023
296.021017
296.034972
296.049958
296.066051
296.083331
296.101885
296.121807
296.143194
295.842281
295.842327
295.842421
295.842563
295.842753
295.842993
295.843283
295.843625
295.84402
295.844472
295.844981
295.845551
295.846184
295.846884
295.847654
295.848497
295.849419
295.850423
295.851514
295.852698
295.853981
295.85537
295.85687
295.85849
295.860237
295.86212
295.864148
295.866332
295.868682
295.871209
295.873927
295.876849
295.879988
295.883361
295.886984
295.890874
295.895052
295.899537
295.904351
295.909519
295.915064
295.921016
295.927401
295.934253
295.941603
295.949489
295.957948
295.967022
295.976754
295.987192
295.998387
296.010393
296.023268
296.037073
296.051877
296.067749
296.084767
296.103013
296.122573
296.14354
295.843222
295.843271
295.84337
295.843519
295.843718
295.843969
295.844273
295.844631
295.845045
295.845517
295.84605
295.846645
295.847306
295.848036
295.848839
295.849717
295.850675
295.851719
295.852852
295.85408
295.855409
295.856846
295.858396
295.860068
295.86187
295.863809
295.865895
295.868138
295.870548
295.873137
295.875917
295.878901
295.882104
295.885539
295.889224
295.893176
295.897413
295.901955
295.906824
295.912042
295.917634
295.923626
295.930046
295.936924
295.944292
295.952184
295.960638
295.969692
295.979389
295.989773
296.000894
296.012802
296.025552
296.039204
296.05382
296.069468
296.08622
296.104153
296.123349
296.143895
295.844255
295.844307
295.84441
295.844566
295.844774
295.845037
295.845355
295.84573
295.846163
295.846657
295.847213
295.847835
295.848524
295.849285
295.85012
295.851034
295.85203
295.853114
295.854289
295.855562
295.856938
295.858424
295.860025
295.86175
295.863605
295.865601
295.867745
295.870047
295.872517
295.875167
295.878009
295.881056
295.88432
295.887818
295.891564
295.895576
295.899871
295.904468
295.909389
295.914656
295.920291
295.926321
295.932772
295.939672
295.947054
295.954949
295.963392
295.972423
295.982079
295.992405
296.003446
296.015251
296.027872
296.041364
296.055789
296.071208
296.08769
296.105307
296.124137
296.14426
295.845388
295.845442
295.845551
295.845714
295.845932
295.846207
295.846539
295.846931
295.847384
295.847899
295.848479
295.849128
295.849846
295.850638
295.851507
295.852457
295.853492
295.854616
295.855835
295.857153
295.858576
295.860111
295.861763
295.863541
295.865452
295.867503
295.869705
295.872066
295.874596
295.877308
295.880211
295.883319
295.886645
295.890203
295.894009
295.898079
295.90243
295.907081
295.912052
295.917364
295.92304
295.929104
295.935582
295.942502
295.949893
295.957786
295.966215
295.975217
295.984828
295.99509
296.006046
296.017742
296.030229
296.043558
296.057785
296.072971
296.089179
296.106477
296.124938
296.144636
295.846632
295.846688
295.846801
295.846972
295.8472
295.847487
295.847835
295.848244
295.848716
295.849253
295.849859
295.850534
295.851282
295.852106
295.853009
295.853996
295.855069
295.856235
295.857497
295.85886
295.860331
295.861915
295.863619
295.86545
295.867416
295.869524
295.871783
295.874203
295.876793
295.879565
295.882528
295.885697
295.889083
295.892701
295.896565
295.900691
295.905096
295.909798
295.914816
295.920171
295.925884
295.93198
295.938481
295.945416
295.952812
295.960699
295.969109
295.978077
295.987637
295.99783
296.008696
296.020279
296.032625
296.045785
296.059811
296.074759
296.090689
296.107665
296.125754
296.145026
295.847996
295.848055
295.848173
295.848351
295.848589
295.848889
295.849252
295.849678
295.850171
295.850731
295.851361
295.852063
295.852841
295.853698
295.854636
295.855659
295.856772
295.857979
295.859285
295.860694
295.862213
295.863847
295.865603
295.867487
295.869507
295.871671
295.873988
295.876466
295.879115
295.881946
295.884969
295.888197
295.891642
295.895318
295.899238
295.903418
295.907875
295.912625
295.917688
295.923083
295.92883
295.934953
295.941474
295.94842
295.955816
295.963692
295.972078
295.981006
295.990511
296.000629
296.0114
296.022863
296.035064
296.048049
296.061868
296.076574
296.092222
296.108872
296.126587
296.145432
295.849493
295.849555
295.849678
295.849864
295.850112
295.850425
295.850802
295.851247
295.851759
295.852342
295.852998
295.853728
295.854536
295.855425
295.856398
295.857459
295.858612
295.859861
295.86121
295.862665
295.864232
295.865916
295.867723
295.86966
295.871735
295.873955
295.876328
295.878864
295.881571
295.88446
295.887542
295.890828
295.89433
295.898061
295.902036
295.906268
295.910774
295.91557
295.920674
295.926105
295.931882
295.938028
295.944565
295.951517
295.958909
295.966769
295.975126
295.984009
295.993453
296.00349
296.014159
296.025498
296.037548
296.050353
296.06396
296.078418
296.09378
296.110101
296.12744
296.145857
295.851136
295.8512
295.851329
295.851522
295.851781
295.852106
295.8525
295.852962
295.853495
295.854101
295.854782
295.855541
295.856379
295.857301
295.858309
295.859408
295.8606
295.86189
295.863284
295.864785
295.866399
295.868133
295.869991
295.871981
295.87411
295.876385
295.878814
295.881406
295.884171
295.887117
295.890255
295.893598
295.897155
295.90094
295.904966
295.909248
295.9138
295.918638
295.92378
295.929243
295.935047
295.941212
295.94776
295.954713
295.962096
295.969935
295.978256
295.98709
295.996466
296.006418
296.016979
296.028187
296.04008
296.0527
296.06609
296.080296
296.095367
296.111355
296.128315
296.146303
295.85294
295.853006
295.85314
295.853341
295.85361
295.853949
295.854357
295.854838
295.855392
295.856021
295.856728
295.857514
295.858383
295.859338
295.860382
295.861517
295.862749
295.864082
295.865519
295.867066
295.868728
295.87051
295.872419
295.874461
295.876643
295.878972
295.881456
295.884104
295.886924
295.889926
295.89312
295.896516
295.900126
295.903963
295.908038
295.912366
295.916961
295.921838
295.927014
295.932506
295.938332
295.944511
295.951065
295.958014
295.965383
295.973194
295.981475
295.990253
295.999556
296.009415
296.019863
296.030934
296.042665
296.055093
296.068261
296.08221
296.096986
296.112638
296.129217
296.146773
295.854919
295.854989
295.855128
295.855336
295.855616
295.855968
295.856392
295.856891
295.857465
295.858118
295.85885
295.859665
295.860564
295.861552
295.86263
295.863804
295.865075
295.866449
295.867929
295.869522
295.87123
295.873061
295.87502
295.877113
295.879347
295.88173
295.884267
295.886969
295.889843
295.892898
295.896145
295.899593
295.903254
295.907139
295.911261
295.915631
295.920266
295.925178
295.930384
295.9359
295.941743
295.947932
295.954487
295.961427
295.968775
295.976554
295.984789
295.993504
296.002728
296.012488
296.022817
296.033745
296.045307
296.057538
296.070478
296.084165
296.098642
296.113955
296.13015
296.147273
295.857093
295.857165
295.857309
295.857526
295.857816
295.85818
295.85862
295.859137
295.859732
295.860408
295.861166
295.862008
295.862938
295.863958
295.865072
295.866282
295.867592
295.869007
295.870531
295.872168
295.873923
295.875801
295.877809
295.879952
295.882237
295.884671
295.887261
295.890014
295.89294
295.896047
295.899344
295.902842
295.90655
295.910481
295.914645
295.919055
295.923725
295.928668
295.9339
295.939435
295.945291
295.951484
295.958034
295.96496
295.972282
295.980022
295.988203
295.99685
296.005988
296.015643
296.025845
296.036624
296.048011
296.06004
296.072746
296.086167
296.100341
296.11531
296.131118
296.147808
295.85948
295.859555
295.859704
295.859928
295.860229
295.860606
295.861061
295.861596
295.862212
295.86291
295.863694
295.864564
295.865524
295.866576
295.867724
295.868971
295.87032
295.871775
295.87334
295.875021
295.876821
295.878746
295.880801
295.882993
295.885328
295.887811
295.890451
295.893255
295.89623
295.899386
295.902731
295.906275
295.910027
295.914
295.918203
295.922648
295.927349
295.932319
295.937571
295.943121
295.948983
295.955176
295.961715
295.96862
295.97591
295.983605
295.991727
296.000298
296.009343
296.018887
296.028956
296.039579
296.050785
296.062605
296.075072
296.088221
296.102087
296.11671
296.132129
296.148383
295.862102
295.862179
295.862333
295.862566
295.862876
295.863266
295.863737
295.86429
295.864925
295.865646
295.866455
295.867352
295.868342
295.869426
295.870607
295.871889
295.873276
295.87477
295.876377
295.8781
295.879944
295.881914
295.884016
295.886254
295.888636
295.891167
295.893854
295.896706
295.899728
295.90293
295.906319
295.909906
295.913699
295.91771
295.921947
295.926424
295.931152
295.936143
295.94141
295.946969
295.952833
295.959018
295.965541
295.972419
295.979669
295.987312
295.995368
296.003857
296.012803
296.022228
296.032158
296.042618
296.053636
296.065241
296.077464
296.090335
296.103889
296.118162
296.133189
296.149007
295.864983
295.865062
295.865222
295.865461
295.865782
295.866185
295.86667
295.86724
295.867896
295.868639
295.869472
295.870396
295.871414
295.872529
295.873743
295.87506
295.876483
295.878016
295.879662
295.881426
295.883312
295.885326
295.887471
295.889754
295.892181
295.894757
295.89749
295.900386
295.903452
295.906696
295.910127
295.913753
295.917583
295.921626
295.925894
295.930397
295.935146
295.940153
295.945431
295.950992
295.956852
295.963023
295.969523
295.976367
295.983572
295.991156
295.999138
296.007538
296.016377
296.025676
296.035459
296.04575
296.056574
296.067958
296.07993
296.092519
296.105756
296.119674
296.134307
296.149687
295.868149
295.868231
295.868395
295.868642
295.868973
295.869388
295.869888
295.870475
295.871149
295.871914
295.87277
295.87372
295.874766
295.875911
295.877157
295.878507
295.879965
295.881535
295.883219
295.885022
295.886949
295.889003
295.89119
295.893516
295.895985
295.898604
295.901378
295.904315
295.907421
295.910704
295.914172
295.917833
295.921695
295.925768
295.930061
295.934584
295.939349
295.944366
295.949648
295.955206
295.961054
295.967206
295.973676
295.980478
295.98763
295.995148
296.003049
296.011353
296.020077
296.029243
296.038872
296.048986
296.059609
296.070765
296.082481
296.094782
296.107699
296.121259
296.135495
296.150435
295.87163
295.871715
295.871884
295.872138
295.872478
295.872904
295.873418
295.874021
295.874715
295.8755
295.876379
295.877354
295.878426
295.8796
295.880876
295.882258
295.88375
295.885354
295.887074
295.888914
295.890879
295.892972
295.895198
295.897563
295.900071
295.902729
295.905542
295.908516
295.911659
295.914976
295.918477
295.922167
295.926057
295.930153
295.934466
295.939005
295.943779
295.948801
295.95408
295.959628
295.965458
295.971582
295.978014
295.984769
295.99186
295.999304
296.007117
296.015315
296.023918
296.032943
296.04241
296.05234
296.062755
296.073677
296.08513
296.097139
296.109729
296.122928
296.136764
296.151264
295.87546
295.875546
295.87572
295.875981
295.87633
295.876767
295.877295
295.877913
295.878624
295.879429
295.88033
295.881328
295.882426
295.883626
295.884931
295.886343
295.887866
295.889503
295.891257
295.893132
295.895131
295.89726
295.899522
295.901923
295.904467
295.90716
295.910007
295.913015
295.916189
295.919537
295.923065
295.92678
295.930691
295.934806
295.939132
295.94368
295.948458
295.953477
295.958746
295.964277
295.970082
295.976171
295.982558
295.989256
295.996279
296.003641
296.011357
296.019443
296.027915
296.036791
296.046089
296.055828
296.066028
296.076709
296.087894
296.099604
296.111864
296.124697
296.138131
296.152188
295.879674
295.879763
295.879941
295.880208
295.880566
295.881014
295.881554
295.882187
295.882915
295.883738
295.884659
295.885679
295.8868
295.888026
295.889357
295.890797
295.892349
295.894016
295.895801
295.897707
295.899739
295.9019
295.904195
295.906628
295.909204
295.911928
295.914805
295.917841
295.921042
295.924414
295.927964
295.931699
295.935626
295.939752
295.944086
295.948636
295.95341
295.958419
295.963672
295.969178
295.974949
295.980996
295.987329
295.993963
296.000909
296.00818
296.015791
296.023755
296.032089
296.040809
296.04993
296.05947
296.069447
296.079881
296.09079
296.102196
296.11412
296.126585
296.139614
296.153227
295.884316
295.884407
295.884589
295.884862
295.885227
295.885685
295.886237
295.886883
295.887626
295.888466
295.889406
295.890446
295.891589
295.892838
295.894193
295.895659
295.897237
295.898931
295.900744
295.902678
295.904739
295.906928
295.909252
295.911713
295.914316
295.917066
295.919968
295.923028
295.92625
295.929641
295.933207
295.936955
295.940891
295.945022
295.949356
295.953901
295.958665
295.963656
295.968883
295.974357
295.980086
295.986081
295.992354
295.998914
296.005774
296.012946
296.020442
296.028277
296.036465
296.045018