/*--------------------------------*- C++ -*----------------------------------*\
  =========                 |
  \\      /  F ield         | OpenFOAM: The Open Source CFD Toolbox
   \\    /   O peration     | Website:  https://openfoam.org
    \\  /    A nd           | Version:  11
     \\/     M anipulation  |
\*---------------------------------------------------------------------------*/
FoamFile
{
    format      ascii;
    class       volScalarField;
    location    "1.6331e-05";
    object      h.gas;
}
// * * * * * * * * * * * * * * * * * * * * * * * * * * * * * * * * * * * * * //

dimensions      [0 2 -2 0 0 0 0];

internalField   nonuniform List<scalar> 
120000
(
384465.929
384465.838
384465.656
384465.38
384465.008
384464.535
384463.956
384463.263
384462.451
384461.509
384460.428
384459.195
384457.799
384456.224
384454.453
384452.47
384450.253
384447.782
384445.03
384441.972
384438.578
384434.814
384430.647
384426.035
384420.936
384415.302
384409.082
384402.217
384394.646
384386.3
384377.101
384366.967
384355.806
384343.516
384329.986
384315.093
384298.7
384280.657
384260.797
384238.936
384214.87
384188.371
384159.189
384127.046
384091.637
384052.628
384009.657
383962.341
383910.285
383853.107
383790.474
383722.172
383648.218
383569.049
383485.831
383400.944
383318.735
383246.762
383197.61
383119.606
384430.909
384430.645
384430.115
384429.312
384428.228
384426.851
384425.167
384423.158
384420.804
384418.081
384414.963
384411.42
384407.419
384402.922
384397.889
384392.274
384386.029
384379.099
384371.426
384362.945
384353.587
384343.275
384331.927
384319.454
384305.759
384290.737
384274.275
384256.252
384236.537
384214.989
384191.457
384165.78
384137.788
384107.296
384074.113
384038.035
383998.85
383956.335
383910.264
383860.405
383806.525
383748.397
383685.804
383618.55
383546.473
383469.455
383387.453
383300.517
383208.822
383112.725
383012.817
382909.981
382805.458
382700.985
382598.887
382502.194
382420.005
382348.224
382296.331
382200.695
384393.886
384393.441
384392.547
384391.194
384389.368
384387.052
384384.223
384380.854
384376.914
384372.366
384367.172
384361.285
384354.656
384347.229
384338.944
384329.734
384319.527
384308.243
384295.798
384282.098
384267.043
384250.524
384232.425
384212.621
384190.977
384167.348
384141.583
384113.517
384082.978
384049.782
384013.737
383974.64
383932.282
383886.445
383836.903
383783.43
383725.794
383663.768
383597.13
383525.669
383449.191
383367.532
383280.562
383188.203
383090.439
382987.338
382879.083
382765.982
382648.474
382527.214
382403.086
382277.251
382151.188
382026.758
381911.713
381799.584
381698.614
381613.051
381545.619
381445.61
384357.779
384357.147
384355.876
384353.956
384351.371
384348.098
384344.112
384339.38
384333.863
384327.518
384320.294
384312.136
384302.982
384292.764
384281.405
384268.825
384254.934
384239.635
384222.824
384204.388
384184.206
384162.149
384138.077
384111.842
384083.288
384052.247
384018.544
383981.993
383942.4
383899.563
383853.271
383803.309
383749.453
383691.48
383629.162
383562.277
383490.605
383413.937
383332.08
383244.864
383152.146
383053.824
382949.848
382840.238
382725.088
382604.562
382478.947
382348.669
382235.864
382098.97
381959.64
381819.096
381678.844
381523.279
381391.668
381268.648
381157.64
381062.907
380985.431
380890.72
384324.494
384323.656
384321.973
384319.442
384316.052
384311.787
384306.624
384300.53
384293.466
384285.385
384276.231
384265.94
384254.444
384241.664
384227.515
384211.903
384194.729
384175.884
384155.25
384132.703
384108.109
384081.325
384052.201
384020.575
383986.279
383949.136
383908.959
383865.556
383818.724
383768.257
383713.943
383655.564
383592.904
383525.744
383453.871
383377.075
383295.161
383207.947
383115.272
383017.006
382913.057
382803.388
382688.005
382566.965
382461.756
382331.101
382195.52
382055.498
381911.677
381764.875
381616.12
381466.69
381320.931
381176.347
381037.746
380885.878
380769.949
380670.966
380588.337
380501.652
384294.519
384293.437
384291.278
384288.061
384283.801
384278.5
384272.148
384264.719
384256.176
384246.469
384235.539
384223.316
384209.723
384194.676
384178.082
384159.839
384139.839
384117.967
384094.097
384068.098
384039.829
384009.141
383975.877
383939.872
383900.954
383858.941
383813.647
383764.877
383712.432
383656.109
383595.701
383530.999
383461.797
383387.892
383309.085
383225.189
383136.03
383041.457
382941.342
382835.603
382724.188
382607.074
382505.951
382378.903
382246.512
382109.065
381966.957
381820.718
381671.026
381518.738
381364.909
381213.502
381061.893
380914.406
380773.387
380641.588
380522.235
380398.778
380313.962
380233.878
384267.615
384266.233
384263.51
384259.519
384254.324
384247.961
384240.44
384231.742
384221.829
384210.648
384198.132
384184.206
384168.787
384151.784
384133.097
384112.621
384090.242
384065.839
384039.284
384010.442
383979.169
383945.314
383908.72
383869.22
383826.643
383780.811
383731.539
383678.638
383621.914
383561.173
383496.216
383426.848
383352.875
383274.109
383190.372
383101.496
383007.333
382907.761
382802.691
382692.056
382597.02
382476.502
382350.503
382219.168
382082.723
381941.491
381795.904
381646.523
381494.06
381339.395
381183.619
381030.8
380878.143
380730.025
380588.742
380456.977
380337.866
380235.429
380127.287
380052.915
384243.198
384241.452
384238.07
384233.225
384227.056
384219.643
384211.009
384201.139
384189.989
384177.498
384163.593
384148.191
384131.202
384112.53
384092.071
384069.716
384045.348
384018.844
383990.075
383958.904
383925.188
383888.777
383849.514
383807.237
383761.778
383712.962
383660.61
383604.542
383544.571
383480.512
383412.18
383339.389
383261.963
383179.728
383092.524
383000.205
382902.651
382799.768
382691.473
382599.173
382481.272
382357.98
382229.4
382095.705
381957.15
381814.083
381666.96
381516.365
381363.025
381207.849
381051.933
380899.413
380747.326
380600.073
380459.891
380329.387
380211.596
380110.423
380001.294
379931.601
384220.556
384218.382
384214.265
384208.518
384201.375
384192.955
384183.29
384172.358
384160.106
384146.463
384131.345
384114.665
384096.326
384076.228
384054.263
384030.32
384004.282
383976.024
383945.418
383912.327
383876.611
383838.121
383796.705
383752.204
383704.455
383653.289
383598.535
383540.019
383477.566
383411
383340.146
383264.834
383184.899
383100.184
383010.548
382915.868
382816.046
382710.99
382622.044
382507.682
382388.046
382263.201
382133.272
381998.45
381859.007
381715.303
381567.804
381417.098
381263.918
381109.159
380956.52
380803.064
380652.716
380507.357
380369.175
380240.706
380124.891
380025.52
379916.507
379850.682
384198.969
384196.321
384191.424
384184.768
384176.686
384167.325
384156.718
384144.83
384131.596
384116.933
384100.75
384082.953
384063.44
384042.107
384018.846
383993.543
383966.081
383936.337
383904.182
383869.483
383832.101
383791.892
383748.708
383702.393
383652.792
383599.742
383543.08
383482.64
383418.257
383349.764
383276.999
383199.804
383118.027
383031.529
382940.187
382843.899
382742.567
382657.282
382546.967
382431.521
382310.979
382185.424
382054.997
381919.909
381780.444
381636.976
381489.981
381340.057
381187.949
381034.547
380883.584
380732.018
380583.773
380440.675
380304.842
380178.728
380065.169
379967.833
379882.638
379797.099
384177.777
384174.637
384168.955
384161.42
384152.454
384142.225
384130.758
384118.005
384103.886
384088.309
384071.175
384052.384
384031.832
384009.41
383985.01
383958.518
383929.817
383898.785
383865.295
383829.217
383790.415
383748.75
383704.076
383656.247
383605.11
383550.511
383492.295
383430.305
383364.383
383294.376
383220.131
383141.503
383058.355
382970.567
382878.033
382780.656
382678.347
382592.99
382481.987
382366.016
382245.129
382119.426
381989.066
381854.271
381715.338
381572.651
381426.693
381278.074
381127.534
380975.953
380827.092
380677.79
380531.976
380391.425
380258.19
380134.642
380023.514
379928.354
379844.821
379761.708
384156.414
384152.79
384146.355
384137.994
384128.208
384117.179
384104.922
384091.375
384076.446
384060.035
384042.036
384022.342
384000.848
383977.445
383952.021
383924.464
383894.657
383862.48
383827.81
383790.519
383750.474
383707.54
383661.578
383612.446
383559.998
383504.088
383444.568
383381.288
383314.103
383242.867
383167.439
383087.687
383003.491
382914.746
382821.352
382723.213
382641.752
382535.228
382423.882
382307.738
382186.865
382061.376
381931.442
381797.296
381659.245
381517.681
381373.094
381226.1
381077.429
380927.954
380781.454
380634.653
380491.48
380353.658
380223.175
380102.321
379993.725
379900.815
379819.045
379738.261
384134.416
384130.338
384123.206
384114.081
384103.536
384091.765
384078.773
384064.486
384048.804
384031.615
384012.811
383992.281
383969.916
383945.606
383919.241
383890.708
383859.891
383826.673
383790.934
383752.547
383711.385
383667.318
383620.212
383569.929
383516.332
383459.28
383398.633
383334.251
383265.997
383193.735
383117.336
383036.683
382951.671
382862.199
382768.169
382690.515
382588.409
382481.633
382370.192
382254.124
382133.509
382008.474
381879.202
381745.933
381608.984
381468.752
381325.742
381180.565
381033.946
380886.752
380742.789
380598.652
380458.267
380323.303
380195.68
380077.603
379971.603
379880.99
379801.043
379722.526
384111.405
384106.92
384099.155
384089.33
384078.082
384065.615
384051.929
384036.942
384020.544
384002.619
383983.053
383961.732
383938.546
383913.384
383886.136
383856.69
383824.932
383790.748
383754.018
383714.622
383672.437
383627.335
383579.188
383527.866
383473.237
383415.168
383353.526
383288.181
383219.004
383145.869
383068.663
382987.284
382901.63
382811.602
382717.121
382639.721
382537.41
382430.569
382319.215
382203.399
382083.213
381958.792
381830.328
381698.068
381562.33
381423.518
381282.133
381138.773
380994.147
380851.696
380708.102
380566.907
380429.525
380297.583
380172.941
380057.731
379954.388
379866.109
379788.028
379711.74
384087.081
384082.239
384073.907
384063.44
384051.533
384038.406
384024.057
384008.397
383991.31
383972.677
383952.378
383930.299
383906.327
383880.351
383852.262
383821.95
383789.301
383754.205
383716.544
383676.203
383633.062
383586.999
383537.891
383485.614
383430.042
383371.05
383308.514
383242.309
383172.318
383098.43
383020.543
382938.559
382852.375
382761.911
382688.199
382590.195
382487.81
382381.044
382269.924
382154.514
382034.916
381911.277
381783.794
381652.723
381518.389
381381.208
381241.68
381100.398
380958.065
380818.151
380677.236
380538.864
380404.403
380275.422
380153.717
380041.337
379940.623
379854.652
379778.428
379704.325
384061.193
384056.042
384047.205
384036.146
384023.617
384009.856
383994.865
383978.55
383960.794
383941.471
383920.461
383897.646
383872.913
383846.152
383817.254
383786.109
383752.609
383716.642
383678.097
383636.861
383592.819
383545.853
383495.848
383442.683
383386.242
383326.405
383263.056
383196.082
383125.378
383050.844
382972.383
382889.895
382803.299
382712.528
382639.178
382541.101
382438.778
382332.221
382221.47
382106.599
381987.723
381864.996
381738.623
381608.869
381476.072
381340.649
381203.096
381063.998
380924.054
380786.757
380648.573
380513.056
380381.531
380255.517
380136.744
380027.183
379929.083
379845.403
379771.026
379699.078
384033.528
384028.112
384018.822
384007.213
383994.09
383979.716
383964.097
383947.141
383928.727
383908.728
383887.021
383863.487
383838.013
383810.489
383780.805
383748.856
383714.534
383677.732
383638.34
383596.25
383551.351
383503.532
383452.681
383398.686
383341.435
383280.818
383216.726
383149.06
383077.725
383002.621
382923.653
382840.74
382753.811
382683.997
382590.034
382491.968
382389.797
382283.543
382173.258
382059.027
381940.971
381819.254
381694.09
381565.751
381434.585
381301.007
381165.509
381028.672
380891.182
380756.56
380621.154
380488.528
380359.966
380236.933
380121.097
380014.353
379918.858
379837.455
379764.918
379695.105
384003.894
383998.249
383988.551
383976.426
383962.732
383947.759
383931.523
383913.934
383894.872
383874.206
383851.813
383827.574
383801.374
383773.105
383742.658
383709.928
383674.812
383637.203
383596.998
383554.091
383508.376
383459.748
383408.1
383353.326
383295.322
383233.987
383169.226
383100.946
383029.049
382953.444
382874.052
382790.803
382703.638
382634.256
382540.277
382442.32
382340.396
382234.538
382124.808
382011.302
381894.15
381773.521
381649.635
381522.786
381393.318
381261.644
381128.255
380993.73
380858.747
380726.855
380594.278
380464.587
380339.022
380218.996
380106.113
380002.189
379909.296
379830.162
379759.458
379691.766
383972.112
383966.268
383956.199
383943.586
383929.34
383913.779
383896.933
383878.719
383859.014
383837.689
383814.62
383789.687
383762.776
383733.778
383702.586
383669.099
383633.213
383594.827
383553.84
383510.151
383463.658
383414.262
383361.862
383306.359
383247.658
383185.671
383120.302
383051.458
382979.054
382903.011
382823.261
382739.741
382673.743
382583.655
382489.723
382391.945
382290.338
382184.946
382075.841
381963.123
381846.927
381727.431
381604.872
381479.535
381351.763
381221.964
381090.618
380958.291
380828.24
380696.802
380567.244
380440.632
380318.169
380201.223
380091.34
379990.266
379899.988
379823.125
379754.249
379688.672
383938.004
383931.988
383921.578
383908.503
383893.719
383877.579
383860.13
383841.295
383820.954
383798.979
383775.243
383749.627
383722.019
383692.308
383660.393
383626.17
383589.54
383550.406
383508.67
383464.235
383417.005
383366.884
383313.781
383257.607
383198.275
383135.691
383069.765
383000.419
382927.577
382851.169
382771.135
382708.407
382622.05
382531.981
382438.19
382340.684
382239.494
382134.67
382026.292
381914.468
381799.341
381681.104
381560
381436.314
381310.39
381182.637
381053.531
380923.633
380796.231
380667.555
380540.888
380417.253
380297.813
380183.882
380076.942
379978.667
379890.96
379816.329
379749.256
379685.775
383901.394
383895.226
383884.503
383870.987
383855.68
383838.97
383820.925
383801.474
383780.503
383757.884
383733.492
383707.206
383678.915
383648.511
383615.892
383580.959
383543.614
383503.763
383461.313
383416.17
383368.246
383317.456
383263.712
383206.926
383147.011
383083.885
383017.471
382947.696
382874.495
382797.807
382717.582
382655.362
382569.008
382479.054
382385.502
382288.367
382187.69
382083.531
381975.976
381865.14
381751.183
381634.308
381514.755
381392.813
381268.827
381143.203
381016.413
380889.01
380764.313
380638.433
380514.672
380394.02
380277.597
380166.667
380062.653
379967.153
379881.991
379809.567
379744.275
379682.876
383862.1
383855.798
383844.788
383830.85
383815.034
383797.764
383779.128
383759.068
383737.474
383714.22
383689.182
383662.24
383633.284
383602.206
383568.906
383533.288
383495.257
383454.722
383411.594
383365.792
383317.229
383265.818
383211.475
383154.12
383093.675
383030.066
382963.225
382893.086
382819.59
382742.688
382683.641
382600.833
382514.549
382424.783
382331.544
382234.859
382134.774
382031.356
381924.698
381814.933
381702.228
381586.788
381468.855
381348.722
381226.734
381103.294
380978.873
380854.015
380732.074
380609.036
380488.219
380370.578
380257.192
380149.274
380048.184
379955.453
379872.823
379802.59
379739.064
379679.74
383819.934
383813.515
383802.239
383787.901
383771.591
383753.769
383734.551
383713.89
383691.681
383667.803
383642.132
383614.55
383584.946
383553.216
383519.261
383482.987
383444.306
383403.132
383359.378
383312.959
383263.795
383211.805
383156.914
383099.048
383038.135
382974.109
382906.909
382836.477
382762.763
382706.807
382627.401
382544.639
382458.51
382369.016
382276.174
382180.017
382080.598
381977.991
381872.304
381763.677
381652.28
381538.316
381422.029
381303.71
381183.699
381062.392
380940.247
380820.381
380698.897
380578.873
380461.132
380346.602
380236.323
380131.463
380033.327
379943.377
379863.28
379795.233
379733.461
379676.209
383774.699
383768.178
383756.66
383741.943
383725.154
383706.794
383687.002
383665.749
383642.937
383618.447
383592.158
383563.954
383533.725
383501.371
383466.797
383429.908
383390.617
383348.84
383304.494
383257.501
383207.785
383155.273
383099.893
383041.579
382980.266
382915.895
382848.411
382777.765
382724.834
382648.704
382569.334
382486.712
382400.833
382311.708
382219.362
382123.833
382025.181
381923.5
381818.904
381711.537
381601.571
381489.213
381374.71
381258.355
381140.486
381021.497
380901.84
380784.67
380665.975
380548.856
380434.106
380322.616
380215.385
380113.531
380018.3
379931.087
379853.483
379787.585
379727.541
379672.347
383726.186
383719.579
383707.842
383692.769
383675.52
383656.636
383636.284
383614.451
383591.049
383565.966
383539.081
383510.281
383479.458
383446.51
383411.344
383373.87
383334.003
383291.663
383246.773
383199.257
383149.046
383096.071
383040.266
382981.572
382919.931
382855.289
382787.601
382737.641
382664.666
382588.566
382509.325
382426.935
382341.402
382252.744
382160.986
382066.179
381968.404
381867.758
381764.359
381658.353
381549.917
381439.263
381326.64
381212.339
381096.698
380980.103
380863.002
380748.584
380632.716
380518.524
380406.775
380298.327
380194.136
380095.273
380002.926
379918.424
379843.286
379779.512
379721.172
379668.029
383674.174
383667.497
383655.568
383640.166
383622.481
383603.093
383582.199
383559.804
383535.831
383510.172
383482.71
383453.335
383421.94
383388.427
383352.704
383314.683
383274.284
383231.428
383186.044
383138.061
383087.414
383034.038
382977.876
382918.873
382856.977
382792.143
382745.109
382675.179
382602.232
382526.252
382447.228
382365.162
382280.061
382191.951
382100.873
382006.895
381910.095
381810.575
381708.46
381603.899
381497.076
381388.202
381277.53
381165.351
381051.998
380937.857
380823.365
380711.755
380598.761
380487.537
380378.821
380273.435
380172.296
380076.427
379986.959
379905.159
379832.47
379770.801
379714.109
379663.049
383618.424
383611.697
383599.603
383583.903
383565.809
383545.94
383524.522
383501.583
383477.057
383450.842
383422.828
383392.905
383360.97
383326.926
383290.684
383252.159
383211.274
383167.955
383122.132
383073.741
383022.72
382969.012
382912.563
382853.325
382791.253
382747.113
382680.125
382610.226
382537.396
382461.624
382382.906
382301.245
382216.662
382129.196
382038.899
381945.837
381850.095
381751.778
381651.016
381547.961
381442.797
381335.738
381227.033
381116.967
381005.867
380894.11
380784.73
380673.581
380563.62
380455.489
380349.901
380247.648
380149.611
380056.766
379970.195
379891.105
379820.862
379761.278
379706.135
379657.244
383558.683
383551.924
383539.697
383523.732
383505.26
383484.935
383463.018
383439.558
383414.501
383387.756
383359.217
383328.777
383296.336
383261.8
383225.082
383186.101
383144.782
383101.055
383054.854
383006.119
382954.794
382900.826
382844.168
382784.776
382743.513
382679.38
382612.436
382542.662
382470.044
382394.572
382316.25
382235.101
382151.154
382064.452
381975.05
381883.02
381788.453
381691.459
381592.173
381490.751
381387.38
381282.275
381175.684
381067.893
380959.224
380850.047
380743.443
380635.137
380528.124
380423.017
380320.5
380221.331
380126.35
380036.486
379952.769
379876.35
379808.515
379750.984
379697.359
379650.632
383494.681
383487.909
383475.581
383459.388
383440.574
383419.825
383397.438
383373.482
383347.923
383320.677
383291.644
383260.722
383227.814
383192.829
383155.682
383116.296
383074.598
383030.523
382984.01
382935.001
382883.446
382829.298
382772.514
382734.122
382672.763
382608.69
382541.882
382472.32
382399.999
382324.926
382247.117
382166.594
382083.392
381997.559
381909.157
381818.263
381724.975
381629.407
381531.696
381432.005
381330.52
381227.458
381123.067
381017.629
380911.465
380804.937
380701.171
380595.759
380491.729
380389.671
380290.24
380194.159
380102.231
380015.339
379934.459
379860.69
379795.239
379739.736
379687.606
379643.041
383426.133
383419.368
383406.973
383390.594
383371.476
383350.341
383327.514
383303.095
383277.064
383249.348
383219.856
383188.489
383155.155
383119.765
383082.238
383042.499
383000.479
382956.117
382909.355
382860.14
382808.426
382774.857
382718.781
382660.11
382598.816
382534.877
382468.282
382399.026
382327.111
382252.547
382175.351
382095.554
382013.196
381928.329
381841.021
381751.355
381659.431
381565.367
381469.303
381371.4
381271.846
381170.855
381068.671
380965.568
380861.86
380760.511
380657.22
380554.852
380453.926
380355.011
380258.735
380165.793
380076.95
379993.045
379915.007
379843.883
379780.805
379727.315
379676.66
379634.262
383352.731
383345.995
383333.571
383317.052
383297.678
383276.199
383252.974
383228.128
383201.662
383173.514
383143.602
383111.834
383078.12
383042.375
383004.523
382964.49
382922.213
382877.632
382830.694
382801.817
382750.74
382697.191
382641.135
382582.549
382521.416
382457.722
382391.458
382322.626
382251.23
382177.287
382100.821
382021.867
381940.472
381856.693
381770.604
381682.291
381591.859
381499.43
381405.145
381309.169
381211.69
381112.921
381013.102
380912.508
380811.444
380712.925
380612.516
380513.125
380415.248
380319.428
380226.266
380136.423
380050.626
379969.671
379894.436
379825.919
379765.178
379713.669
379664.458
379624.228
383274.12
383267.438
383255.031
383238.428
383218.857
383197.088
383173.513
383148.287
383121.43
383092.896
383062.61
383030.488
382996.446
382960.403
382922.284
382882.022
382839.555
382815.228
382768.863
382720.153
382669.063
382615.563
382559.627
382501.234
382440.371
382377.028
382311.203
382242.901
382172.134
382098.923
382023.299
381945.301
381864.982
381782.404
381697.645
381610.796
381521.964
381431.275
381338.873
381244.923
381149.612
381053.153
380955.785
380857.776
380759.428
380663.807
380566.333
380469.96
380375.161
380282.456
380192.418
380105.677
380022.919
379944.899
379872.448
379806.515
379748.085
379698.531
379650.737
379612.68
383189.892
383183.295
383170.957
383154.337
383134.637
383112.644
383088.781
383063.231
383036.038
383007.171
382976.567
382944.152
382909.845
382873.565
382835.244
382815.311
382773.367
382729.216
382682.814
382634.125
382583.117
382529.763
382474.043
382415.941
382355.447
382292.556
382227.273
382159.606
382089.574
382017.202
381942.525
381865.589
381786.448
381705.17
381621.836
381536.54
381449.392
381360.517
381270.06
381178.185
381085.078
380990.945
380896.021
380800.567
380707.517
380612.383
380517.989
380424.75
380333.122
380243.605
380156.744
380073.139
379993.441
379918.365
379848.698
379785.34
379729.203
379681.581
379635.181
379599.314
383099.657
383093.163
383080.933
383064.348
383044.578
383022.421
382998.339
382972.534
382945.067
382915.921
382885.045
382872.316
382838.382
382802.509
382764.636
382724.711
382682.68
382638.499
382592.128
382543.534
382492.689
382439.569
382384.157
382326.442
382266.418
382204.086
382139.453
382072.533
382003.35
381931.933
381858.322
381782.567
381704.726
381624.871
381543.087
381459.469
381374.131
381287.199
381198.82
381109.158
381018.396
380926.742
380834.424
380741.701
380651.564
380559.378
380468.017
380377.875
380289.388
380203.029
380119.317
380038.82
379962.153
379889.99
379823.083
379762.266
379708.379
379662.656
379617.619
379583.95
383003.264
382996.883
382984.779
382968.254
382948.435
382945.282
382921.564
382896.065
382868.874
382840.004
382809.423
382777.082
382742.913
382706.859
382668.86
382628.863
382586.822
382542.693
382496.439
382448.03
382397.441
382344.652
382289.649
382232.425
382172.977
382111.312
382047.44
381981.38
381913.158
381842.809
381770.376
381695.911
381619.478
381541.151
381461.015
381379.17
381295.727
381210.815
381124.579
381037.179
380948.797
380859.632
380769.91
380682.513
380592.883
380503.783
380415.563
380328.605
380243.322
380160.169
380079.638
380002.265
379928.633
379859.379
379795.219
379736.925
379685.265
379641.419
379597.717
379566.262
382920.9
382914.789
382903.109
382887.048
382867.66
382845.725
382821.716
382795.902
382768.403
382739.248
382708.417
382675.867
382641.543
382605.387
382567.345
382527.366
382485.405
382441.421
382395.381
382347.257
382297.028
382244.676
382190.191
382133.57
382074.815
382013.935
381950.944
381885.865
381818.729
381749.573
381678.445
381605.399
381530.504
381453.834
381375.478
381295.537
381214.125
381131.37
381047.417
380962.425
380876.574
380790.06
380703.106
380618.656
380531.995
380445.946
380360.841
380277.042
380194.942
380114.971
380037.595
379963.32
379892.693
379826.314
379764.867
379709.063
379659.595
379617.596
379575.193
379545.969
382814.223
382808.177
382796.559
382780.512
382761.062
382738.994
382714.815
382688.815
382661.13
382631.808
382600.839
382568.191
382533.814
382497.658
382459.672
382419.809
382378.027
382334.29
382288.566
382240.832
382191.068
382139.262
382085.407
382029.502
381971.554
381911.573
381849.58
381785.599
381719.665
381651.818
381582.108
381510.593
381437.341
381362.432
381285.953
381208.005
381128.704
381048.174
380966.559
380884.015
380800.715
380716.852
380635.285
380551.355
380467.797
380384.906
380303.001
380222.426
380143.557
380066.802
379992.6
379921.429
379853.802
379790.286
379731.533
379678.194
379630.892
379590.712
379549.576
379544.645
382699.404
382693.49
382682.053
382666.171
382646.824
382624.787
382600.582
382574.521
382546.764
382517.377
382486.368
382453.714
382419.377
382383.311
382345.473
382305.819
382264.312
382220.919
382175.613
382128.373
382079.183
382028.033
381974.92
381919.848
381862.824
381803.864
381742.991
381680.233
381615.626
381549.215
381481.051
381411.196
381339.719
381266.701
381192.231
381116.412
381039.357
380961.192
380882.058
380802.11
380721.518
380640.472
380561.898
380480.971
380400.493
380320.742
380242.02
380164.654
380088.999
380015.44
379944.39
379876.297
379811.644
379750.968
379694.877
379643.959
379598.788
379560.398
379520.491
379518.169
382576.368
382570.625
382559.44
382543.818
382524.682
382502.788
382478.667
382452.648
382424.915
382395.556
382364.595
382332.022
382297.81
382261.922
382224.319
382184.965
382143.826
382100.873
382056.082
382009.436
381960.923
381910.535
381858.272
381804.14
381748.152
381690.324
381630.682
381569.256
381506.087
381441.219
381374.706
381306.611
381237.005
381165.968
381093.591
381019.974
380945.229
380869.482
380792.868
380715.539
380637.661
380562.096
380484.05
380406.258
380328.967
380252.444
380176.976
380102.874
380030.474
379960.136
379892.252
379827.239
379765.554
379707.711
379654.264
379605.734
379562.667
379526.041
379487.324
379487.702
382444.688
382439.144
382428.265
382412.981
382394.152
382372.505
382348.57
382322.694
382295.084
382265.846
382235.023
382202.621
382168.623
382133.001
382095.725
382056.763
382016.087
381973.671
381929.497
381883.548
381835.817
381786.299
381734.997
381681.92
381627.081
381570.5
381512.206
381452.231
381390.615
381327.407
381262.661
381196.44
381128.816
381059.869
380989.689
380918.374
380846.036
380772.796
380698.786
380624.155
380551.709
380476.676
380401.738
380327.115
380253.04
380179.767
380107.568
380036.737
379967.59
379900.467
379835.734
379773.782
379715.038
379660
379609.164
379562.987
379521.989
379487.095
379449.527
379452.704
382303.777
382298.456
382287.932
382273.058
382254.627
382233.328
382209.686
382184.06
382156.674
382127.657
382097.069
382064.932
382031.241
381995.98
381959.125
381920.652
381880.537
381838.76
381795.305
381750.161
381703.321
381654.786
381604.56
381552.653
381499.084
381443.873
381387.05
381328.651
381268.718
381207.298
381144.449
381080.235
381014.727
380948.005
380880.159
380811.287
380741.498
380670.912
380599.657
380527.879
380458.468
380386.461
380314.62
380243.154
380172.283
380102.245
380033.299
379965.719
379899.802
379835.866
379774.252
379715.324
379659.489
379607.216
379558.945
379515.078
379476.109
379442.914
379406.446
379412.537
382152.931
382147.856
382137.729
382123.335
382105.39
382084.542
382061.302
382036.035
382008.983
381980.291
381950.04
381918.267
381884.982
381850.177
381813.839
381775.951
381736.494
381695.453
381652.817
381608.578
381562.732
381515.281
381466.234
381415.603
381363.407
381309.669
381254.421
381197.698
381139.545
381080.009
381019.148
380957.025
380893.712
380829.287
380763.839
380697.463
380630.265
380562.36
380493.876
380427.672
380358.773
380289.909
380221.267
380153.04
380085.44
380018.691
379953.036
379888.734
379826.062
379765.317
379706.817
379650.904
379597.974
379548.443
379502.688
379461.096
379424.125
379392.371
379357.182
379366.321
381991.344
381986.535
381976.847
381962.995
381945.623
381925.33
381902.606
381877.815
381851.212
381822.959
381793.154
381761.852
381729.074
381694.828
381659.107
381621.903
381583.204
381543
381501.283
381458.05
381413.3
381367.038
381319.274
381270.023
381219.304
381167.144
381113.574
381058.631
381002.359
380944.807
380886.032
380826.096
380765.07
380703.032
380640.066
380576.267
380511.736
380446.588
380383.663
380317.955
380252.179
380186.499
380121.087
380056.127
379991.817
379928.37
379866.011
379804.985
379745.549
379687.979
379632.57
379579.644
379529.587
379482.764
379439.487
379400.132
379365.119
379334.706
379300.812
379313.152
381818.091
381813.567
381804.353
381791.106
381774.393
381754.759
381732.667
381708.475
381682.444
381654.751
381625.511
381594.794
381562.636
381529.055
381494.058
381457.643
381419.805
381380.541
381339.847
381297.724
381254.173
381209.204
381162.827
381115.059
381065.922
381015.444
380963.655
380910.594
380856.304
380800.835
380744.242
380686.588
380627.94
380568.375
380507.976
380446.833
380385.048
380325.457
380263.002
380200.396
380137.783
380075.317
380013.158
379951.48
379890.469
379830.324
379771.257
379713.493
379657.273
379602.853
379550.507
379500.552
379453.334
379409.157
379368.31
379331.149
379298.055
379268.926
379236.287
379252.002
381632.099
381627.877
381619.172
381606.587
381590.614
381571.742
381550.4
381526.934
381501.605
381474.603
381446.054
381416.044
381384.624
381351.825
381317.663
381282.146
381245.277
381207.059
381167.492
381126.582
381084.335
381040.76
380995.873
380949.69
380902.237
380853.539
380803.63
380752.549
380700.337
380647.044
380592.725
380537.44
380481.255
380424.245
380366.49
380308.078
380249.593
380189.15
380128.806
380068.721
380009.067
379950.024
379891.785
379834.556
379778.556
379723.375
379667.586
379613.065
379560.036
379508.732
379459.415
379412.401