/*--------------------------------*- C++ -*----------------------------------*\
  =========                 |
  \\      /  F ield         | OpenFOAM: The Open Source CFD Toolbox
   \\    /   O peration     | Website:  https://openfoam.org
    \\  /    A nd           | Version:  11
     \\/     M anipulation  |
\*---------------------------------------------------------------------------*/
FoamFile
{
    format      ascii;
    class       volScalarField;
    location    "1.6331e-05";
    object      p;
}
// * * * * * * * * * * * * * * * * * * * * * * * * * * * * * * * * * * * * * //

dimensions      [1 -1 -2 0 0 0 0];

internalField   nonuniform List<scalar> 
120000
(
6101533.69
6101545.1
6101567.94
6101602.28
6101648.21
6101705.85
6101775.34
6101856.86
6101950.6
6102056.79
6102175.68
6102307.54
6102452.65
6102611.32
6102783.89
6102970.67
6103172.02
6103388.29
6103619.83
6103867
6104130.14
6104409.59
6104705.68
6105018.68
6105348.89
6105696.51
6106061.75
6106444.72
6106845.52
6107264.13
6107700.48
6108154.4
6108625.6
6109113.68
6109618.12
6110138.24
6110673.18
6111221.91
6111783.16
6112355.45
6112936.99
6113525.66
6114118.98
6114714
6115307.25
6115894.63
6116471.31
6117031.6
6117568.79
6118075.09
6118541.46
6118957.64
6119312.2
6119592.78
6119786.61
6119881.23
6119865.37
6119735.69
6119087.51
6119053.91
6104746.71
6104769.02
6104813.67
6104880.71
6104970.2
6105082.24
6105216.91
6105374.33
6105554.61
6105757.88
6105984.25
6106233.82
6106506.69
6106802.9
6107122.5
6107465.47
6107831.74
6108221.17
6108633.54
6109068.54
6109525.76
6110004.65
6110504.52
6111024.55
6111563.71
6112120.78
6112694.34
6113282.74
6113884.06
6114496.12
6115116.45
6115742.28
6116370.52
6116997.77
6117620.29
6118233.99
6118834.49
6119417.07
6119976.76
6120508.3
6121006.28
6121465.13
6121879.27
6122243.2
6122551.65
6122799.75
6122983.26
6123098.85
6123144.35
6123119.17
6123024.64
6122864.38
6122644.77
6122375.34
6122069.01
6121741.75
6121412.43
6121102.57
6120451.32
6120587.23
6107906.32
6107938.5
6108002.88
6108099.48
6108228.32
6108389.44
6108582.85
6108808.56
6109066.58
6109356.88
6109679.4
6110034.03
6110420.62
6110838.93
6111288.67
6111769.41
6112280.65
6112821.72
6113391.83
6113989.98
6114615.01
6115265.53
6115939.91
6116636.27
6117352.42
6118085.89
6118833.87
6119593.19
6120360.32
6121131.34
6121901.96
6122667.46
6123422.75
6124162.34
6124880.38
6125570.7
6126226.85
6126842.17
6127409.89
6127923.23
6128375.51
6128760.4
6129072.03
6129305.28
6129456.05
6129521.56
6129500.61
6129394.03
6129205.09
6128940.13
6128608.04
6128220.23
6127790.91
6127336.88
6126876.75
6126415.39
6125970.78
6125606.2
6124891.91
6124973.21
6111064.45
6111105.41
6111187.32
6111310.17
6111473.94
6111678.59
6111924.06
6112210.23
6112536.99
6112904.14
6113311.42
6113758.53
6114245.05
6114770.46
6115334.11
6115935.23
6116572.87
6117245.89
6117952.97
6118692.51
6119462.71
6120261.46
6121086.34
6121934.61
6122803.17
6123688.54
6124586.86
6125493.82
6126404.71
6127314.38
6128217.22
6129107.19
6129977.86
6130822.38
6131633.56
6132403.92
6133125.77
6133791.35
6134392.91
6134922.89
6135374.12
6135739.97
6136014.76
6136193.68
6136273.42
6136252.4
6136130.23
6135907.69
6135587.02
6135208.13
6134780.41
6134317.7
6133838.33
6133364.24
6132867.52
6132370.76
6131894.54
6131531.42
6130804.82
6130873.74
6114208.03
6114256.56
6114353.59
6114499.09
6114692.97
6114935.11
6115225.37
6115563.53
6115949.32
6116382.39
6116862.3
6117388.54
6117960.43
6118577.2
6119237.91
6119941.42
6120686.44
6121471.41
6122294.56
6123153.82
6124046.85
6124970.98
6125923.18
6126900.06
6127897.84
6128912.32
6129938.86
6130972.37
6132007.31
6133037.66
6134056.94
6135058.21
6136034.13
6136976.92
6137878.46
6138730.29
6139523.81
6140250.13
6140900.08
6141464.98
6141936.74
6142308.03
6142572.47
6142724.97
6142760.39
6142709.13
6142570.69
6142347.98
6142047.75
6141680.83
6141260.68
6140804.03
6140330.56
6139843.22
6139362.89
6138912.3
6138478.77
6138115.99
6137433.22
6137533.45
6117308.1
6117362.97
6117472.67
6117637.13
6117856.2
6118129.7
6118457.39
6118838.95
6119273.97
6119761.96
6120302.32
6120894.31
6121537.09
6122229.62
6122970.71
6123758.95
6124592.72
6125470.15
6126389.11
6127347.17
6128341.59
6129369.27
6130426.76
6131510.23
6132615.41
6133737.63
6134871.76
6136012.22
6137153
6138287.57
6139408.99
6140509.97
6141582.81
6142619.26
6143610.61
6144548.4
6145424.47
6146231.1
6146942.18
6147549.73
6148045.44
6148420.99
6148667.22
6148829.31
6148902.46
6148885.86
6148781.27
6148593.12
6148328.78
6147998.87
6147617.31
6147201.4
6146753.25
6146291.77
6145837.13
6145409.11
6145025.7
6144722.76
6144103.07
6144249.54
6120331.53
6120391.55
6120511.52
6120691.34
6120930.82
6121229.7
6121587.67
6122004.29
6122479.04
6123011.31
6123600.33
6124245.22
6124944.92
6125698.22
6126503.69
6127359.72
6128264.43
6129215.71
6130211.15
6131248.07
6132323.43
6133433.86
6134575.64
6135744.63
6136936.34
6138145.81
6139367.69
6140596.35
6141825.69
6143049.04
6144259.32
6145449.01
6146610.75
6147737.45
6148803.74
6149801.48
6150721.77
6151555.08
6152291.25
6152920.24
6153432.22
6153852.8
6154175.89
6154398.24
6154517.52
6154532.88
6154463.45
6154312.93
6154088.46
6153800.68
6153463.27
6153092.89
6152690.87
6152276.2
6151868.42
6151486.52
6151147.68
6150881.2
6150319.09
6150511.13
6123252.89
6123316.93
6123444.92
6123636.72
6123892.11
6124210.77
6124592.29
6125036.16
6125541.75
6126108.31
6126734.96
6127420.67
6128164.22
6128964.23
6129819.1
6130727.02
6131685.95
6132693.56
6133747.26
6134844.16
6135981.06
6137154.41
6138360.31
6139594.62
6140852.86
6142130.04
6143420.8
6144719.38
6146019.65
6147315.06
6148599.32
6149848.48
6151055
6152210.43
6153305.45
6154330.5
6155275.81
6156131.44
6156887.42
6157533.86
6158095.79
6158567
6158942.39
6159218.55
6159394
6159469.42
6159447.98
6159334.88
6159137.66
6158883.19
6158584.2
6158256.1
6157899.15
6157531.69
6157172.42
6156839.47
6156549.16
6156327.69
6155813.05
6156040.35
6126059.47
6126126.49
6126260.45
6126461.17
6126728.37
6127061.69
6127460.64
6127924.63
6128452.93
6129044.69
6129698.91
6130414.41
6131189.85
6132023.71
6132914.22
6133859.43
6134857.11
6135904.81
6136999.76
6138138.93
6139319.19
6140536.87
6141788.01
6143068.31
6144373.15
6145697.55
6147036.2
6148383.51
6149733.58
6151063.31
6152365.53
6153632.07
6154854.38
6156023.49
6157130.09
6158164.55
6159117.02
6159977.51
6160736.01
6161416.29
6162011.62
6162516.14
6162925.37
6163236.44
6163448.36
6163562.16
6163581.16
6163511.18
6163360.67
6163140.94
6162882.21
6162584.11
6162261.81
6161932.14
6161612.44
6161319.51
6161068.51
6160883.36
6160407.79
6160661.3
6128751.44
6128820.54
6128958.65
6129165.56
6129440.95
6129784.39
6130195.35
6130673.14
6131216.96
6131825.85
6132498.7
6133234.23
6134030.96
6134887.22
6135801.12
6136770.57
6137793.34
6138866.82
6139988.13
6141154.13
6142361.35
6143606.02
6144884.03
6146190.89
6147521.79
6148871.5
6150234.42
6151605.03
6152960.64
6154294.19
6155598.13
6156864.36
6158084.33
6159249.04
6160349.1
6161374.74
6162315.91
6163162.26
6163936.37
6164631.47
6165241.35
6165760.88
6166186.26
6166515.22
6166747.27
6166883.86
6166928.62
6166887.56
6166769.2
6166584.71
6166347.92
6166074.41
6165778.95
6165477.26
6165185.28
6164918.28
6164689.7
6164520.63
6164063.39
6164338.58
6131339.51
6131409.92
6131550.6
6131761.33
6132041.77
6132391.44
6132809.72
6133295.88
6133849.02
6134468.05
6135151.85
6135899.07
6136708.11
6137577.21
6138504.41
6139487.51
6140524.08
6141611.44
6142746.65
6143926.49
6145147.46
6146405.77
6147697.35
6149017.85
6150362.64
6151726.81
6153089.18
6154443.66
6155783.2
6157100.4
6158387.44
6159636.15
6160838.01
6161984.21
6163065.69
6164073.18
6164997.39
6165829.08
6166591.66
6167277.69
6167880.85
6168396.08
6168819.79
6169149.91
6169386.17
6169530.17
6169585.61
6169558.43
6169456.91
6169291.75
6169076.02
6168825.17
6168553.78
6168277.1
6168010.45
6167768.4
6167563.69
6167416.47
6166985.02
6167273.51
6133841.69
6133912.71
6134054.63
6134267.18
6134550
6134902.56
6135324.22
6135814.16
6136371.44
6136994.95
6137683.41
6138435.36
6139249.14
6140122.9
6141054.58
6142041.87
6143082.23
6144172.88
6145310.75
6146492.5
6147714.5
6148972.8
6150263.12
6151580.84
6152921.46
6154264.37
6155603.67
6156932.96
6158245.36
6159533.55
6160789.79
6162005.93
6163173.48
6164283.64
6165327.33
6166295.24
6167177.99
6167996.97
6168745.32
6169416.7
6170005.73
6170508.17
6170921.13
6171243.17
6171474.54
6171617.3
6171675.53
6171655.41
6171565.41
6171416.32
6171221.22
6170979.96
6170721.81
6170461.03
6170211.93
6169988.08
6169801.3
6169670.74
6169260.11
6169556.58
6136280.24
6136351.34
6136493.38
6136706.1
6136989.11
6137341.84
6137763.6
6138253.53
6138810.64
6139433.75
6140121.51
6140872.4
6141684.69
6142556.46
6143485.6
6144469.75
6145506.34
6146592.57
6147725.4
6148901.54
6150117.45
6151369.37
6152653.29
6153950.06
6155254.59
6156560.96
6157862.84
6159153.54
6160425.98
6161672.68
6162885.79
6164057.07
6165177.94
6166239.5
6167232.51
6168147.48
6169004.51
6169796.93
6170518.41
6171163.35
6171727.09
6172206.06
6172597.95
6172901.88
6173118.51
6173250.28
6173301.47
6173278.37
6173189.38
6173045.01
6172857.65
6172626.52
6172380.43
6172133.23
6171898.61
6171689.44
6171516.8
6171399.08
6171005.57
6171306.23
6138679.13
6138749.82
6138891.05
6139102.53
6139383.85
6139734.4
6140153.47
6140640.14
6141193.35
6141811.87
6142494.3
6143239.02
6144044.26
6144908.01
6145828.07
6146802.03
6147827.23
6148900.81
6150019.64
6151180.39
6152379.47
6153613.04
6154862.47
6156122.8
6157388.69
6158654.35
6159913.61
6161159.92
6162386.33
6163585.56
6164749.99
6165871.73
6166942.61
6167954.28
6168898.24
6169766.05
6170578.38
6171328.13
6172008.98
6172615.55
6173143.48
6173589.59
6173951.95
6174230.08
6174425.06
6174539.67
6174578.55
6174548.3
6174457.6
6174317.24
6174126.24
6173896.63
6173655.76
6173416.45
6173191.41
6172992.56
6172830.11
6172721.66
6172342.13
6172644
6141062.41
6141132.31
6141271.96
6141481.06
6141759.16
6142105.64
6142519.74
6143000.5
6143546.83
6144157.44
6144830.85
6145565.41
6146359.25
6147210.31
6148116.3
6149074.73
6150082.84
6151137.64
6152235.89
6153374.04
6154548.67
6155741.82
6156948.95
6158165.05
6159384.74
6160602.25
6161811.41
6163005.68
6164178.16
6165321.59
6166428.39
6167490.64
6168500.13
6169448.4
6170326.68
6171154.06
6171924.28
6172631.36
6173269.92
6173835.38
6174324.09
6174733.48
6175062.17
6175310.12
6175478.81
6175571.27
6175592.29
6175548.51
6175448.42
6175302.42
6175109.27
6174881.09
6174644.31
6174411.09
6174193.45
6174002.54
6173847.83
6173746.3
6173378.42
6173679.33
6143453.39
6143522.2
6143659.65
6143865.45
6144139.12
6144480.03
6144887.39
6145360.23
6145897.41
6146497.63
6147159.39
6147881.02
6148660.65
6149496.23
6150385.51
6151326.06
6152315.25
6153350.27
6154428.1
6155532.07
6156658.32
6157802.29
6158959.15
6160123.7
6161290.43
6162453.52
6163606.8
6164743.8
6165857.75
6166941.61
6167988.07
6168989.61
6169938.53
6170827.05
6171647.36
6172419
6173135.35
6173790.48
6174379.25
6174897.39
6175341.62
6175709.72
6176000.68
6176214.78
6176353.75
6176420.83
6176420.93
6176360.66
6176248.43
6176094.38
6175897.14
6175668.41
6175433.62
6175204.35
6174991.93
6174806.81
6174657.78
6174561.25
6174203.29
6174501.72
6145874.26
6145941.7
6146076.42
6146278.11
6146546.28
6146880.27
6147279.27
6147742.28
6148268.12
6148855.44
6149502.69
6150208.14
6150969.86
6151785.71
6152653.36
6153570.23
6154533.54
6155540.58
6156575.14
6157633.55
6158711.8
6159805.47
6160909.82
6162019.73
6163129.78
6164234.19
6165326.86
6166401.39
6167451.06
6168468.88
6169447.57
6170379.6
6171257.19
6172072.36
6172843.15
6173563.78
6174228.67
6174832.77
6175371.69
6175841.83
6176240.5
6176566.02
6176817.83
6176996.6
6177104.36
6177144.58
6177122.28
6177044.09
6176918.29
6176754.77
6176552.02
6176321.29
6176086.99
6175860.12
6175651.37
6175470.51
6175325.69
6175232.84
6174883.62
6175178.54
6148347.34
6148413.24
6148544.87
6148741.91
6149003.88
6149330.1
6149719.74
6150171.8
6150685.09
6151258.24
6151889.71
6152577.78
6153320.54
6154115.89
6154961.54
6155855.3
6156782.08
6157738.9
6158722.16
6159727.95
6160752.05
6161789.97
6162836.88
6163887.68
6164936.94
6165978.98
6167007.83
6168017.24
6169000.77
6169951.7
6170863.19
6171728.18
6172539.58
6173290.26
6173998.69
6174658.77
6175264.99
6175812.53
6176297.31
6176716.09
6177066.52
6177347.28
6177558.15
6177700.11
6177775.43
6177787.74
6177742.15
6177645.25
6177505.2
6177331.41
6177122.12
6176888.23
6176653.19
6176427.45
6176221.12
6176043.31
6175901.57
6175811.37
6175470.04
6175760.74
6150895.53
6150959.76
6151088.04
6151280.06
6151535.32
6151853.13
6152232.64
6152672.83
6153172.48
6153730.21
6154344.44
6155013.35
6155735.22
6156508.36
6157318.62
6158163.56
6159040.12
6159944.97
6160874.46
6161824.65
6162791.29
6163769.85
6164755.51
6165743.15
6166727.39
6167702.58
6168662.78
6169601.85
6170513.39
6171390.78
6172227.25
6173015.83
6173749.45
6174445.19
6175097.57
6175701.33
6176251.72
6176744.59
6177176.49
6177544.75
6177847.56
6178084.09
6178254.56
6178360.37
6178404.13
6178389.81
6178322.8
6178209.93
6178059.55
6177869.86
6177649.97
6177409.93
6177171.9
6176945.54
6176740.18
6176564.23
6176424.55
6176336.16
6176002.07
6176287.96
6153544.53
6153607.09
6153732.05
6153919.09
6154167.71
6154477.24
6154846.79
6155275.28
6155761.65
6156304.86
6156903.94
6157545.96
6158229.3
6158951.77
6159710.67
6160503.05
6161325.67
6162175.06
6163047.43
6163938.77
6164844.76
6165760.83
6166682.13
6167603.57
6168519.77
6169425.09
6170313.69
6171179.43
6172015.97
6172816.74
6173574.97
6174283.7
6174959.11
6175596.04
6176189.43
6176734.64
6177227.48
6177664.39
6178042.44
6178359.44
6178614.05
6178805.84
6178935.37
6179004.32
6179015.51
6178973.02
6178882.22
6178749.84
6178583.87
6178382.37
6178154.49
6177909.92
6177669.77
6177443.18
6177238.85
6177064.58
6176926.65
6176839.72
6176512.43
6176793.12
6156323.42
6156384.24
6156505.84
6156688.11
6156930.88
6157233.98
6157597.24
6158009.01
6158468.57
6158974.72
6159525.79
6160119.62
6160753.87
6161425.93
6162132.99
6162871.96
6163639.53
6164432.12
6165245.92
6166076.89
6166920.7
6167772.83
6168628.49
6169482.67
6170330.13
6171165.45
6171982.99
6172776.92
6173541.29
6174269.98
6174956.82
6175595.6
6176202.89
6176773.3
6177301.84
6177784.08
6178216.12
6178594.67
6178917.15
6179181.71
6179387.32
6179533.85
6179622.12
6179654.01
6179632.5
6179561.75
6179447.11
6179295.2
6179113.8
6178900.88
6178665.26
6178416.18
6178173.79
6177946.68
6177743.01
6177570
6177433.39
6177347.52
6177026.67
6177301.88
6159274.71
6159329.59
6159439.11
6159602.79
6159819.9
6160089.4
6160409.98
6160779.97
6161197.59
6161660.88
6162167.75
6162715.87
6163302.73
6163925.61
6164581.57
6165267.45
6165979.87
6166715.22
6167469.67
6168239.16
6169019.41
6169805.89
6170593.89
6171378.45
6172154.45
6172916.53
6173659.15
6174376.63
6175063.1
6175712.58
6176318.94
6176897.65
6177443.88
6177952.93
6178420.49
6178842.69
6179216.18
6179538.2
6179806.62
6180020.02
6180177.75
6180280.04
6180327.99
6180323.73
6180270.37
6180172.16
6180034.46
6179863.75
6179667.49
6179443.42
6179200.11
6178946.38
6178701.51
6178473.57
6178270.19
6178098.03
6177962.36
6177877.22
6177562.55
6177832.11
6162143.01
6162193.65
6162294.7
6162445.75
6162646.11
6162894.89
6163190.97
6163532.99
6163919.38
6164348.36
6164817.91
6165325.79
6165869.58
6166446.58
6167053.9
6167688.45
6168346.86
6169025.59
6169720.86
6170428.66
6171144.78
6171864.79
6172584.04
6173297.72
6174000.77
6174688
6175354.01
6175993.25
6176600.04
6177168.58
6177713.6
6178230.45
6178714.59
6179161.83
6179568.33
6179930.73
6180246.16
6180512.31
6180727.5
6180890.73
6181001.74
6181061.11
6181070.27
6181031.64
6180948.59
6180825.58
6180668.15
6180482.91
6180267.7
6180029.64
6179776.62
6179516.82
6179268.39
6179038.8
6178835.05
6178663.22
6178528.03
6178443.28
6178134.57
6178398.28
6165020.87
6165067.84
6165161.57
6165301.64
6165487.42
6165718.06
6165992.46
6166309.34
6166667.19
6167064.25
6167498.59
6167968.03
6168470.18
6169002.41
6169561.9
6170145.6
6170750.23
6171372.32
6172008.15
6172653.83
6173305.23
6173958.04
6174607.73
6175249.6
6175878.77
6176490.18
6177078.6
6177638.7
6178164.97
6178671.54
6179153.97
6179607.9
6180029.25
6180414.27
6180759.61
6181062.35
6181320.06
6181530.83
6181693.38
6181807.07
6181871.96
6181888.9
6181859.55
6181786.46
6181673.11
6181523.95
6181344.39
6181140.78
6180910.84
6180661.74
6180401.04
6180136.52
6179885.4
6179654.67
6179450.79
6179279.35
6179144.62
6179060.17
6178757.25
6179014.95
6167946.77
6167990.14
6168076.68
6168205.99
6168377.45
6168590.2
6168843.2
6169135.18
6169464.65
6169829.92
6170229.06
6170659.96
6171120.26
6171607.41
6172118.63
6172650.95
6173201.17
6173765.89
6174341.51
6174924.21
6175510
6176094.68
6176673.87
6177243.02
6177797.39
6178332.11
6178842.16
6179322.37
6179786.34
6180229.86
6180648.75
6181039.09
6181397.25
6181719.93
6182004.21
6182247.59
6182448.04
6182604.05
6182714.68
6182779.61
6182799.2
6182774.54
6182707.49
6182600.73
6182457.81
6182283.17
6182082.13
6181860.87
6181617.07
6181357.62
6181089.71
6180820.71
6180567
6180335.09
6180130.97
6179959.73
6179825.24
6179740.92
6179443.63
6179695.21
6170938.49
6170978.21
6171057.44
6171175.79
6171332.66
6171527.21
6171758.4
6172025.01
6172325.57
6172658.41
6173021.67
6173413.26
6173830.9
6174272.08
6174734.1
6175214.05
6175708.84
6176215.15
6176729.48
6177248.15
6177767.27
6178282.78
6178790.47
6179285.93
6179764.61
6180221.82
6180652.74
6181070.52
6181471.15
6181850.71
6182205.44
6182531.84
6182826.7
6183087.16
6183310.7
6183495.21
6183639.05
6183741.06
6183800.64
6183817.77
6183793.07
6183727.87
6183624.19
6183484.84
6183313.41
6183114.31
6182892.78
6182654.72
6182397.63
6182128.18
6181853.24
6181579.81
6181323.44
6181090.21
6180885.63
6180714.38
6180579.9
6180495.53
6180203.72
6180449.11
6174005.13
6174041.09
6174112.82
6174219.92
6174361.81
6174537.68
6174746.51
6174987.09
6175258.01
6175557.63
6175884.13
6176235.49
6176609.47
6177003.66
6177415.42
6177841.93
6178280.19
6178727
6179178.97
6179632.54
6180083.97
6180529.36
6180964.63
6181385.57
6181787.81
6182166.86
6182535.49
6182889.96
6183226.53
6183541.67
6183832.03
6184094.54
6184326.39
6184525.11
6184688.59
6184815.09
6184903.34
6184952.52
6184962.37
6184933.18
6184865.84
6184761.93
6184623.69
6184454.12
6184256.97
6184036.76
6183798.79
6183540.72
6183268.11
6182987.08
6182704
6182425.29
6182165.63
6181930.57
6181725.12
6181553.49
6181418.73
6181334.08
6181047.64
6181286.7
6177151.63
6177183.73
6177247.74
6177343.29
6177469.8
6177626.49
6177812.36
6178026.24
6178266.75
6178532.33
6178821.18
6179131.36
6179460.71
6179806.89
6180167.34
6180539.37
6180920.07
6181306.37
6181695
6182082.56
6182465.45
6182839.94
6183202.13
6183547.99
6183873.36
6184190.68
6184496.46
6184787.19
6185059.55
6185310.35
6185536.68
6185735.83
6185905.39
6186043.26
6186147.69
6186217.3
6186251.13
6186248.7
6186210
6186135.57
6186026.54
6185884.62
6185712.19
6185512.27
6185288.59
6185045.57
6184788.26
6184514.23
6184229.07
6183938.64
6183648.94
6183366.01
6183103.74
6182867.27
6182661.17
6182489.25
6182354.19
6182269.24
6181988.04
6182220.66
6180380.48
6180408.61
6180464.69
6180548.37
6180659.06
6180796.02
6180958.3
6181144.75
6181354.04
6181584.65
6181834.87
6182102.82
6182386.42
6182683.42
6182991.38
6183307.71
6183629.65
6183954.26
6184278.45
6184599.01
6184912.55
6185215.57
6185504.43
6185775.27
6186040.19
6186295.89
6186539.06
6186766.55
6186975.38
6187162.74
6187326.07
6187463.05
6187571.62
6187650.04
6187696.89
6187711.13
6187692.12
6187639.65
6187553.99
6187435.9
6187286.7
6187108.26
6186903.03
6186674.1
6186425.17
6186160.57
6185885.12
6185596.28
6185299.46
6185000.25
6184704.34
6184417.41
6184152.62
6183914.7
6183707.85
6183535.47
6183399.95
6183314.56
6183038.47
6183264.58
6183692.32
6183716.35
6183764.25
6183835.66
6183930.03
6184046.62
6184184.52
6184342.61
6184519.61
6184714.03
6184924.23
6185148.38
6185384.45
6185630.28
6185883.49
6186141.58
6186401.85
6186661.46
6186917.4
6187166.53
6187405.53
6187630.83
6187853.87
6188071.41
6188280.59
6188478.55
6188662.47
6188829.69
6188977.69
6189104.12
6189206.84
6189283.95
6189333.77
6189354.96
6189346.45
6189307.55
6189237.94
6189137.72
6189007.43
6188848.09
6188661.24
6188448.93
6188213.78
6187959.02
6187688.43
6187406.37
6187110.48
6186805.29
6186495.76
6186187.08
6185884.47
6185593.15
6185325.53
6185085.91
6184878.05
6184705
6184568.81
6184482.84
6184211.78
6184431.27
6187086.22
6187106.05
6187145.53
6187204.33
6187281.92
6187377.58
6187490.41
6187619.34
6187763.13
6187920.35
6188089.38
6188268.46
6188455.64
6188648.8
6188845.66
6189043.77
6189240.53
6189433.18
6189618.77
6189794.14
6189970.31
6190144.35
6190313.64
6190475.52
6190627.37
6190766.68
6190891.04
6190998.15
6191085.88
6191152.27
6191195.54
6191214.15
6191206.79
6191172.44
6191110.37
6191020.17
6190901.81
6190755.65
6190582.44
6190383.39
6190160.17
6189914.95
6189650.37
6189369.64
6189076.45
6188774.97
6188462.77
6188144.4
6187824.62
6187508.3
6187200.34
6186905.6
6186635.82
6186394.92
6186186.32
6186012.71
6185875.88
6185789.36
6185523.23
6185736.01
6190557.54
6190573.06
6190603.94
6190649.85
6190710.28
6190784.53
6190871.75
6190970.91
6191080.8
6191200.04
6191327.09
6191460.24
6191597.6
6191737.13
6191876.62
6192013.7
6192145.8
6192270.16
6192397.54
6192525.32
6192651.15
6192772.61
6192887.33
6192992.97
6193087.28
6193168.09
6193233.35
6193281.13
6193309.64
6193317.28
6193302.6
6193264.4
6193201.7
6193113.77
6193000.18
6192860.82
6192695.9
6192506
6192292.07
6192055.49
6191798.04
6191521.98
6191229.99
6190925.24
6190611.35
6190292.3
6189965.58
6189635.57
6189306.79
6188983.84
6188671.29
6188373.63
6188101.94
6187859.84
6187650.45
6187476.17
6187338.54
6187251.31
6186989.83
6187195.68
6194092.42
6194103.51
6194125.53
6194158.18
6194200.97
6194253.26
6194314.23
6194382.93
6194458.21
6194538.8
6194623.26
6194710.02
6194797.33
6194883.21
6194965.44
6195041.5
6195121.99
6195204.53
6195287.03
6195367.33
6195443.27
6195512.76
6195573.73
6195624.2
6195662.25
6195686.07
6195693.92
6195684.24
6195655.57
6195606.64
6195536.33
6195443.77
6195328.28
6195189.44
6195027.12
6194841.45
6194632.92
6194402.34
6194150.87
6193880.08
6193591.92
6193288.78
6192973.46
6192649.19
6192319.64
6191982.51
6191641.53
6191300.77
6190964.43
6190636.8
6190322.14
6190024.63
6189748.22
6189502.68
6189290.71
6189114.37
6188974.91
6188885.98
6188627.67
6188825.85
6197658.63
6197664.82
6197677.06
6197695.08
6197718.43
6197746.54
6197778.66
6197813.83
6197850.83
6197888.18
6197924.15
6197956.72
6197996.18
6198040.5
6198087.76
6198136.23
6198184.34
6198230.42
6198272.76
6198309.66
6198339.42
6198360.35
6198370.82
6198369.24
6198354.08
6198323.9
6198277.35
6198213.2
6198130.36
6198027.87
6197904.96
6197761.06
6197595.79
6197409.01
6197200.85
6196971.7
6196722.23
6196453.44
6196166.67
6195863.58
6195546.21
6195216.96
6194878.6
6194534.29
6194187.48
6193835.75
6193482.88
6193132.75
6192789.35
6192456.66
6192138.64
6191839.08
6191561.59
6191315.43
6191103.04
6190926.24
6190786.07
6190696.21
6190441.5
6190632.15
6201207.94
6201207.8
6201207.26
6201205.78
6201202.56
6201196.5
6201198.09
6201206.05
6201219.15
6201236.2
6201256.04
6201277.6
6201299.94
6201321.93
6201342.38
6201360.05
6201373.64
6201381.84
6201383.32
6201376.74
6201360.75
6201334.05
6201295.35
6201243.4
6201177.02
6201095.1
6200996.64
6200880.73
6200746.58
6200593.57
6200421.22
6200229.24
6200017.54
6199786.24
6199535.71
6199266.57
6198979.71
6198676.3
6198357.85
6198026.16
6197683.38
6197331.99
6196974.82
6196615.03
6196250.4
6195884.13
6195519.68
6195160.64
6194810.66
6194473.39
6194152.43
6193851.22
6193572.99
6193326.44
6193113.78
6192936.57
6192795.69
6192704.88
6192453.68
6192636.66
6204729.3
6204730.39
6204732.53
6204735.61
6204739.49
6204744
6204749.03
6204754.26
6204759.23
6204763.37
6204766.02
6204766.45
6204763.85
6204757.34
6204746
6204728.85
6204704.88
6204673.05
6204632.32
6204581.62
6204519.9
6204446.13
6204359.33
6204258.53
6204142.86
6204011.48
6203863.69
6203698.84
6203516.46
6203316.16
6203097.75
6202861.18
6202606.6
6202334.36
6202045.03
6201739.41
6201418.55
6201083.77
6200736.66
6200379.1
6200013.26
6199641.6
6199266.9
6198892.14
6198515.04
6198138.85
6197766.9
6197402.63
6197049.46
6196710.83
6196390.08
6196090.4
6195814.75
6195565.76
6195350.97
6195171.73
6195028.73
6194935.78
6194687.15
6194861.83
6208540.99
6208539.82
6208537.43
6208533.68
6208528.37
6208521.22
6208511.89
6208499.96
6208484.98
6208466.38
6208443.59
6208415.94
6208382.74
6208343.23
6208296.65
6208242.17
6208178.97
6208106.2
6208023.03
6207928.59
6207822.08
6207702.7
6207569.68
6207422.32
6207259.97
6207082.08
6206888.15
6206677.82
6206450.84
6206207.07
6205946.54
6205669.43
6205376.11
6205067.13
6204743.24
6204405.41
6204054.86
6203693.03
6203321.62
6202942.6
6202558.21
6202170.95
6201783.58
6201394.01
6201005
6200619.53
6200240.68
6199871.59
6199515.4
6199175.22
6198854.06
6198554.78
6198279.98
6198031.93
6197812.47
6197627.9
6197478.63
6197378.1
6197125.68
6197285.53
6212499.77
6212495.85
6212487.95
6212475.96
6212459.68
6212438.88
6212413.24
6212382.41
6212345.98
6212303.49
6212254.44
6212198.28
6212134.42
6212062.26
6211981.17
6211890.48
6211789.55
6211677.7
6211554.28
6211418.63
6211270.15
6211108.24
6210932.37
6210742.04
6210536.83
6210316.39
6210080.48
6209828.94
6209561.73
6209278.93
6208980.77
6208667.62
6208340.04
6207998.72
6207644.58
6207278.71
6206902.43
6206517.25
6206124.93
6205727.46
6205327.03
6204926.09
6204527.25
6204128.35
6203732.2
6203341.66
6202959.65
6202589.12
6202233
6201894.16
6201575.38
6201279.24
6201008.12
6200764.05
6200548.65
6200363.04
6200212.47
6200110.6
6199861.41
6200013.6
6216575.67
6216569.11
6216555.94
6216536.07
6216509.34
6216475.56
6216434.46
6216385.77
6216329.16
6216264.25
6216190.64
6216107.9
6216015.58
6215913.2
6215800.27
6215676.3
6215540.78
6215393.22
6215233.15
6215060.11
6214873.66
6214673.42
6214459.06
6214230.28
6213986.86
6213728.68
6213455.69
6213167.92
6212865.55
6212548.85
6212218.23
6211874.26
6211517.63
6211149.22
6210770.08
6210381.43
6209984.69
6209581.48
6209173.63
6208763.16
6208352.31
6207943.5
6207534.72
6207128.4
6206727.13
6206333.59
6205950.48
6205580.52
6205226.4
6204890.73
6204576.02
6204284.61
6204018.62
6203779.82
6203569.63
6203388.97
6203238.2
6203135.93
6202890.51
6203035.15
6220772.98
6220764.03
6220746.1
6220719.1
6220682.92
6220637.41
6220582.37
6220517.57
6220442.78
6220357.7
6220262.04
6220155.48
6220037.68
6219908.3
6219766.99
6219613.4
6219447.18
6219268
6219075.56
6218869.58
6218649.81
6218416.03
6218168.11
6217905.94
6217629.5
6217338.84
6217034.1
6216715.51
6216383.42
6216038.27
6215680.65
6215311.27
6214930.98
6214540.8
6214141.88
6213735.57
6213323.37
6212906.98
6212488.26
6212069.27
6211652.23
6211235.31
6210820.71
6210410.78
6210007.97
6209614.77
6209233.68
6208867.2
6208517.82
6208187.92
6207879.79
6207595.54
6207337.06
6207105.95
6206903.46
6206730.36
6206586.95
6206487.7
6206245.3
6206381.92
6225108.93
6225097.88
6225075.76
6225042.5
6224998.03
6224942.22
6224874.95
6224796.04
6224705.33
6224602.63
6224487.72
6224360.39
6224220.41
6224067.57
6223901.64
6223722.42
6223529.7
6223323.3
6223103.08
6222868.91
6222620.71
6222358.43
6222082.1
6221791.8
6221487.65
6221169.89
6220838.82
6220494.82
6220138.39
6219770.13
6219390.75
6219001.09
6218602.11
6218194.92
6217780.76
6217361.01
6216937.22
6216511.09
6216084.48
6215659.39
6215237.94
6214818.25
6214402.56
6213993.16
6213592.37
6213202.55
6212826.05
6212465.2
6212122.29
6211799.51
6211498.96
6211222.54
6210971.96
6210748.65
6210553.71
6210387.8
6210251.18
6210158.79
6209927.47
6210059.92
6229607.4
6229594.56
6229568.86
6229530.27
6229478.71
6229414.13
6229336.44
6229245.52
6229141.29
6229023.62
6228892.39
6228747.49
6228588.79
6228416.18
6228229.57
6228028.87
6227814
6227584.94
6227341.66
6227084.2
6226812.61
6226527.01
6226227.57
6225914.51
6225588.12
6225248.79
6224896.94
6224533.11
6224157.93
6223772.13
6223376.54
6222972.11
6222559.9
6222141.09
6221717
6221289.08
6220858.93
6220428.25
6219998.92
6219572.9
6219148.45
6218727.53
6218312.21
6217904.62
6217506.92
6217121.26
6216749.8
6216394.66
6216057.91
6215741.53
6215447.36
6215177.1
6214932.22
6214713.96
6214523.22
6214360.52
6214225.98
6214135.07
6213908.43
6214033.51
6234297.96
6234283.65
6234255.01
6234212.02
6234154.66
6234082.89
6233996.66
6233895.94
6233780.66
6233650.8
6233506.31
6233347.16
6233173.33
6232984.8
6232781.57
6232563.69
6232331.19
6232084.17
6231822.73
6231547.02
6231257.25
6230953.65
6230636.53
6230306.25
6229963.23
6229607.96
6229241.01
6228863.03
6228474.77
6228077.05
6227670.81
6227257.07
6226836.97
6226411.76
6225982.81
6225551.59
6225119.71
6224688.9
6224260.94
6223834.22
6223410.51
6222991.72
6222579.79
6222176.69
6221784.42
6221404.95
6221040.25
6220692.24
6220362.78
6220053.64
6219766.45
6219502.72
6219263.72
6219050.49
6218863.8
6218704.03
6218571.24
6218481.57
6218259.26
6218376.69
6239216.15
6239200.7
6239169.78
6239123.4
6239061.55
6238984.22
6238891.41
6238783.13
6238659.39
6238520.2
6238365.6
6238195.63
6238010.36
6237809.85
6237594.22
6237363.58
6237118.08
6236857.93
6236583.34
6236294.57
6235991.94
6235675.8
6235346.57
6235004.71
6234650.75
6234285.3
6233909.02
6233522.67
6233127.06
6232723.12
6232311.84
6231894.32
6231471.74
6231045.4
6230616.68
6230187.07
6229758.17
6229331.65
6228905.95
6228482.72
6228063.71
6227650.69
6227245.49
6226849.92
6226465.8
6226094.95
6225739.15
6225400.14
6225079.58
6224779.05
6224499.99
6224243.71
6224011.32
6223803.7
6223621.48
6223464.94
6223334.07
6223245.9
6223027.89
6223137.55
6244404.14
6244387.88
6244355.35
6244306.58
6244241.57
6244160.34
6244062.94
6243949.41
6243819.8
6243674.2
6243512.69
6243335.39
6243142.42
6242933.94
6242710.14
6242471.21
6242217.42
6241949.02
6241666.34
6241369.74
6241059.62
6240736.43
6240400.67
6240052.9
6239693.75
6239323.89
6238944.07
6238555.12
6238157.92
6237753.45
6237342.75
6236926.97
6236507.31
6236085.08
6235661.67
6235238.56
6234817.29
6234396.4
6233977.4
6233561.88
6233151.5
6232747.91
6232352.78
6231967.78
6231594.59
6231234.85
6230890.18
6230562.12
6230252.16
6229961.71
6229692.02
6229444.24
6229219.32
6229017.99