/*--------------------------------*- C++ -*----------------------------------*\
  =========                 |
  \\      /  F ield         | OpenFOAM: The Open Source CFD Toolbox
   \\    /   O peration     | Website:  https://openfoam.org
    \\  /    A nd           | Version:  11
     \\/     M anipulation  |
\*---------------------------------------------------------------------------*/
FoamFile
{
    format      ascii;
    class       volScalarField;
    location    "1.6331e-05";
    object      rho.gas;
}
// * * * * * * * * * * * * * * * * * * * * * * * * * * * * * * * * * * * * * //

dimensions      [1 -3 0 0 0 0 0];

internalField   nonuniform List<scalar> 
120000
(
248.384447
248.386296
248.389997
248.395558
248.402989
248.412306
248.423527
248.436673
248.451768
248.468839
248.487917
248.509031
248.532216
248.557504
248.584931
248.614532
248.646342
248.680393
248.716717
248.755344
248.7963
248.839606
248.88528
248.933332
248.983768
249.036584
249.091768
249.1493
249.209149
249.271273
249.335617
249.402116
249.470691
249.541252
249.613694
249.6879
249.763741
249.841079
249.919764
249.99964
250.080545
250.162317
250.244795
250.327828
250.411283
250.495053
250.579074
250.663341
250.74793
250.83303
250.918959
251.006188
251.095318
251.186959
251.281416
251.377987
251.473529
251.56084
251.552046
251.642692
248.972259
248.975764
248.982774
248.993294
249.007326
249.024876
249.045947
249.070543
249.098665
249.130311
249.165479
249.204157
249.246332
249.291982
249.341077
249.393576
249.449428
249.508569
249.57092
249.636387
249.704856
249.776195
249.850252
249.926851
250.005794
250.086857
250.169793
250.254328
250.340165
250.426981
250.514434
250.60216
250.689781
250.77691
250.863156
250.948134
251.031474
251.112836
251.191923
251.2685
251.342414
251.413615
251.482183
251.548357
251.612557
251.675418
251.737807
251.800845
251.86592
251.93465
252.008821
252.09031
252.180934
252.28212
252.394514
252.517295
252.638188
252.761281
252.833903
252.999886
249.535565
249.540553
249.550529
249.565489
249.585426
249.610331
249.64019
249.674981
249.714679
249.759248
249.808644
249.862809
249.921676
249.985159
250.053157
250.125551
250.2022
250.282939
250.36758
250.455907
250.547674
250.642605
250.740392
250.840694
250.943132
251.047298
251.152746
251.258999
251.365549
251.471861
251.577379
251.681532
251.78374
251.88343
251.980044
252.073056
252.161992
252.246449
252.32612
252.400824
252.470529
252.535394
252.595793
252.652356
252.706009
252.757997
252.809879
252.863585
252.921471
252.986278
253.060795
253.1477
253.249379
253.36761
253.493283
253.63297
253.772879
253.915159
254.001448
254.156481
250.08245
250.088767
250.101398
250.12033
250.145542
250.177005
250.214683
250.258527
250.308478
250.364465
250.4264
250.494178
250.567676
250.646749
250.73123
250.820925
250.915611
251.015035
251.118914
251.226925
251.338713
251.453882
251.571997
251.692584
251.815126
251.939069
252.063818
252.188744
252.313185
252.436451
252.557835
252.676615
252.79207
252.903491
253.010196
253.111549
253.206982
253.296023
253.378324
253.453687
253.522103
253.583782
253.639207
253.689093
253.734521
253.77697
253.817988
253.859118
253.863111
253.918803
253.991318
254.083465
254.198282
254.368856
254.511974
254.657804
254.8017
254.951817
255.041382
255.172514
250.615204
250.622719
250.637738
250.660225
250.690133
250.727402
250.771961
250.823729
250.88261
250.948493
251.02125
251.100733
251.18677
251.279164
251.377691
251.482094
251.592086
251.707341
251.827497
251.952153
252.080866
252.21315
252.348476
252.486272
252.625919
252.766758
252.908091
253.049178
253.18925
253.327506
253.463124
253.595273
253.723117
253.845832
253.962611
254.072687
254.175356
254.269966
254.355892
254.432709
254.500191
254.558327
254.607366
254.647877
254.641567
254.674975
254.712815
254.757064
254.81035
254.875923
254.957081
255.057135
255.174195
255.308774
255.456307
255.654715
255.806742
255.953531
256.050195
256.16396
251.133756
251.142376
251.159578
251.185274
251.219362
251.261727
251.312253
251.370817
251.43729
251.511528
251.593369
251.682631
251.779107
251.882557
251.992716
252.10928
252.23191
252.36023
252.493822
252.632226
252.77494
252.921416
253.071061
253.223241
253.377272
253.532434
253.687961
253.843057
253.99689
254.148604
254.297323
254.442183
254.582323
254.716855
254.844886
254.965673
255.078641
255.183406
255.275584
255.354875
255.420982
255.473682
255.472985
255.510114
255.548381
255.589255
255.634654
255.686885
255.748658
255.823007
255.913213
256.017857
256.138404
256.271387
256.416391
256.57102
256.730113
256.926327
257.030427
257.135838
251.635827
251.645498
251.664736
251.693346
251.731125
251.77788
251.833443
251.897657
251.970365
252.051406
252.140595
252.237729
252.342574
252.454866
252.574306
252.700561
252.833257
252.971983
253.116284
253.265664
253.419584
253.577462
253.738671
253.902544
254.068372
254.23541
254.402873
254.569987
254.735937
254.899864
255.060894
255.218137
255.370831
255.518359
255.656144
255.783525
255.899752
256.004
256.09537
256.17306
256.197471
256.254083
256.306579
256.355958
256.403369
256.450209
256.502134
256.561202
256.629907
256.711129
256.80792
256.918384
257.04392
257.181022
257.329218
257.486071
257.646469
257.804651
257.954899
258.055876
252.11894
252.129637
252.150794
252.182033
252.223001
252.273419
252.333072
252.401784
252.47939
252.565717
252.660574
252.763744
252.874979
252.993996
253.120479
253.254072
253.394381
253.54097
253.693366
253.851052
254.013474
254.180034
254.350095
254.523012
254.69811
254.87466
255.051903
255.229063
255.405342
255.579932
255.752155
255.917499
256.075181
256.224304
256.363859
256.492866
256.610363
256.715422
256.807193
256.845364
256.916427
256.98343
257.046879
257.107647
257.166985
257.22653
257.288311
257.354578
257.427768
257.514196
257.616593
257.73249
257.863337
258.005402
258.158129
258.319043
258.483096
258.644166
258.800662
258.898132
252.581725
252.59343
252.616383
252.64994
252.693569
252.746909
252.809718
252.881819
252.963048
253.053235
253.152188
253.259682
253.375462
253.499235
253.630668
253.769392
253.915
254.067043
254.22503
254.388437
254.55675
254.729365
254.905658
255.08497
255.26662
255.449903
255.634099
255.818484
256.002335
256.181192
256.354203
256.520377
256.678713
256.828203
256.967835
257.096595
257.213486
257.317573
257.368387
257.452102
257.531533
257.606977
257.679048
257.748702
257.817252
257.88637
257.958074
258.034692
258.118855
258.213488
258.32046
258.441958
258.57476
258.719198
258.874343
259.037476
259.203449
259.365921
259.526787
259.62145
253.024388
253.037066
253.061656
253.097182
253.142928
253.198469
253.263556
253.338023
253.421717
253.514475
253.616107
253.726388
253.845056
253.971808
254.106301
254.24816
254.396994
254.552343
254.713715
254.880579
255.052371
255.228487
255.408288
255.591102
255.776223
255.962913
256.150404
256.338015
256.521314
256.69942
256.871407
257.036304
257.193111
257.340802
257.478318
257.604586
257.718545
257.779855
257.873645
257.962962
258.04797
258.129094
258.207049
258.282861
258.35788
258.433782
258.512536
258.596394
258.687887
258.789797
258.900115
259.024614
259.159967
259.306296
259.462425
259.625389
259.789832
259.949024
260.066234
260.201658
253.448603
253.462184
253.488206
253.525329
253.572664
253.629743
253.696324
253.772257
253.857405
253.951602
254.054687
254.166439
254.286593
254.414849
254.550866
254.694267
254.844637
255.001523
255.164436
255.332855
255.506225
255.683964
255.865464
256.050098
256.237228
256.426207
256.612835
256.796321
256.975735
257.150128
257.318534
257.479979
257.633481
257.778055
257.912728
258.036576
258.148738
258.207629
258.301555
258.391812
258.478439
258.561787
258.642521
258.721621
258.800388
258.880417
258.963571
259.051981
259.148046
259.254349
259.368532
259.496512
259.634806
259.783451
259.9412
260.105068
260.269772
260.428714
260.546698
260.680858
253.857139
253.871515
253.898727
253.937072
253.985509
254.04354
254.110939
254.187575
254.273331
254.368068
254.471609
254.583738
254.704196
254.83268
254.96885
255.112325
255.262686
255.419475
255.582199
255.750328
255.923298
256.10051
256.281333
256.4651
256.651216
256.835573
257.017378
257.195789
257.369919
257.538846
257.701619
257.857265
258.004791
258.14319
258.271476
258.3887
258.453879
258.553181
258.64868
258.740364
258.828459
258.913454
258.996115
259.077493
259.158926
259.242004
259.328571
259.420734
259.520855
259.631441
259.749973
259.879111
260.018513
260.168011
260.326207
260.490037
260.654233
260.812305
260.93043
261.062789
254.253462
254.2685
254.296648
254.335871
254.38499
254.443485
254.511145
254.587859
254.673526
254.768018
254.87117
254.982769
255.102563
255.230257
255.365516
255.507969
255.657207
255.812791
255.974251
256.141088
256.312781
256.488787
256.668552
256.848208
257.027051
257.204244
257.378917
257.55017
257.717074
257.878674
258.033988
258.182005
258.321684
258.451984
258.571867
258.641039
258.743621
258.842425
258.937374
259.028588
259.11641
259.201421
259.284454
259.366605
259.449209
259.533828
259.622258
259.716549
259.81893
259.931727
260.052053
260.182664
260.323059
260.473028
260.631127
260.794285
260.957304
261.11385
261.231483
261.361567
254.641338
254.656888
254.685722
254.725505
254.774939
254.833481
254.900926
254.97718
255.062155
255.155734
255.257758
255.368022
255.486275
255.612226
255.745543
255.885856
256.03276
256.185818
256.344565
256.508507
256.67713
256.849897
257.023029
257.195828
257.367549
257.537406
257.704573
257.868193
258.027382
258.181237
258.328831
258.469224
258.601497
258.724763
258.838154
258.9005
258.998285
259.093001
259.184501
259.272877
259.358471
259.441877
259.523951
259.605802
259.688775
259.774453
259.864683
259.961572
260.067412
260.179816
260.302025
260.430733
260.569566
260.718024
260.874457
261.035673
261.19647
261.350635
261.467113
261.594439
255.024613
255.040531
255.069822
255.109899
255.159352
255.217608
255.284466
255.359843
255.443661
255.535816
255.636153
255.744474
255.860533
255.984041
256.114665
256.252037
256.395747
256.545351
256.700369
256.860287
257.02464
257.189782
257.355074
257.519824
257.683295
257.844708
258.003248
258.158067
258.308286
258.452993
258.591248
258.722107
258.844624
258.957827
259.021239
259.1191
259.213868
259.305424
259.393812
259.479274
259.562261
259.643446
259.723738
259.804266
259.886336
259.971506
260.061587
260.158579
260.264626
260.377038
260.499099
260.627504
260.765718
260.913154
261.068101
261.227352
261.38577
261.537337
261.652322
261.776638
255.407088
255.423245
255.452801
255.492959
255.542203
255.599927
255.665928
255.74013
255.822472
255.912859
256.011155
256.117174
256.230688
256.35143
256.479093
256.61334
256.753807
256.900106
257.05183
257.205564
257.360771
257.516797
257.672953
257.828518
257.982742
258.134843
258.28402
258.429444
258.570267
258.705622
258.834656
258.956532
259.070413
259.175483
259.230428
259.321692
259.410493
259.496645
259.580171
259.661308
259.740507
259.818446
259.896015
259.974298
260.054586
260.138407
260.227506
260.323792
260.429289
260.541096
260.662649
260.790443
260.927726
261.07382
261.226953
261.383915
261.539638
261.688323
261.801524
261.922635
255.792471
255.808753
255.838407
255.878465
255.927308
255.984288
256.049189
256.121939
256.202484
256.290737
256.386566
256.489793
256.60019
256.71749
256.841382
256.971517
257.107511
257.249017
257.392719
257.53811
257.684628
257.831665
257.978568
258.124644
258.269165
258.411371
258.550471
258.685642
258.816038
258.940812
259.059102
259.170025
259.27268
259.32642
259.415596
259.50233
259.586474
259.66802
259.747128
259.824137
259.899578
259.974177
260.048835
260.124632
260.202856
260.285018
260.372801
260.468028
260.572615
260.683449
260.804127
260.930943
261.066926
261.211315
261.362287
261.516634
261.669375
261.814935
261.926141
262.043904
256.184671
256.200993
256.23063
256.270475
256.318811
256.374941
256.438636
256.509828
256.588469
256.674488
256.76777
256.868153
256.975433
257.089367
257.209671
257.336097
257.46555
257.597643
257.73187
257.867686
258.004506
258.14171
258.278644
258.414624
258.548939
258.680852
258.809595
258.934396
259.05449
259.169104
259.277461
259.378795
259.472356
259.516638
259.598197
259.677925
259.755618
259.83125
259.90498
259.977152
260.048306
260.119182
260.190606
260.263663
260.339638
260.419987
260.506316
260.600339
260.703834
260.813407
260.932812
261.0582
261.19242
261.334655
261.48305
261.634416
261.783863
261.926051
262.035088
262.149382
256.587871
256.60417
256.633711
256.673272
256.721042
256.776268
256.8387
256.908265
256.984921
257.068603
257.159201
257.256554
257.360509
257.470931
257.584923
257.702198
257.822349
257.944923
258.069418
258.195295
258.321971
258.448833
258.575232
258.700491
258.8239
258.944725
259.062224
259.17565
259.284236
259.387206
259.483779
259.57318
259.614553
259.69259
259.768931
259.843386
259.915897
259.986564
260.055647
260.123583
260.19097
260.258554
260.327255
260.398208
260.472734
260.552324
260.638618
260.733375
260.83361
260.943386
261.059123
261.181291
261.312395
261.451447
261.596481
261.744272
261.889982
262.028481
262.135172
262.245858
257.007007
257.023262
257.052695
257.092003
257.139283
257.193725
257.25505
257.323164
257.398067
257.479785
257.568355
257.661164
257.758101
257.858937
257.96333
258.070895
258.181198
258.293765
258.408082
258.523599
258.639732
258.755864
258.871346
258.985494
259.097608
259.206979
259.312872
259.41453
259.511178
259.602026
259.686267
259.723621
259.797265
259.869413
259.939868
260.00854
260.075472
260.140845
260.204992
260.268392
260.331658
260.395551
260.461022
260.529199
260.601367
260.678952
260.763504
260.856653
260.955157
261.063172
261.17709
261.297326
261.426201
261.56267
261.704742
261.849219
261.991358
262.126275
262.230626
262.337694
257.447864
257.464043
257.493357
257.532484
257.579508
257.633668
257.694813
257.760503
257.830814
257.905744
257.985193
258.068953
258.156766
258.248324
258.343273
258.441213
258.541705
258.64427
258.748397
258.85354
258.959125
259.064542
259.169165
259.272359
259.373467
259.471819
259.566734
259.657525
259.743507
259.823998
259.89833
259.925246
259.990297
260.054415
260.117357
260.179021
260.239446
260.298823
260.357486
260.415899
260.474661
260.534545
260.5965
260.661623
260.731151
260.806447
260.888976
260.98027
261.076885
261.18316
261.295303
261.41363
261.54028
261.674152
261.813238
261.954372
262.092918
262.224241
262.326231
262.42967
257.919272
257.934429
257.961691
257.997607
258.040047
258.088
258.141021
258.198874
258.261402
258.328449
258.399824
258.475296
258.554585
258.637366
258.723276
258.811907
258.902819
258.995534
259.089544
259.184302
259.279244
259.37379
259.467336
259.559253
259.648902
259.735626
259.818759
259.897629
259.971554
260.039857
260.061714
260.12138
260.18029
260.23822
260.295052
260.350784
260.405544
260.459587
260.513278
260.567103
260.621704
260.677885
260.736587
260.798884
260.865969
260.939139
261.01977
261.109282
261.203985
261.308395
261.418576
261.534781
261.658986
261.790052
261.925965
262.063602
262.198435
262.326087
262.42569
262.525476
258.364187
258.378692
258.404708
258.438764
258.478667
258.523365
258.57242
258.625649
258.682939
258.744173
258.809195
258.877801
258.949737
259.024703
259.102355
259.182306
259.264129
259.347364
259.431524
259.516097
259.60054
259.684288
259.766755
259.847338
259.925416
260.000358
260.071519
260.138248
260.199889
260.21601
260.269904
260.323303
260.375967
260.42775
260.478612
260.528633
260.578002
260.62701
260.67606
260.725702
260.776636
260.8297
260.885858
260.946205
261.011953
261.08442
261.165007
261.250351
261.345168
261.445719
261.552435
261.665377
261.786273
261.913878
262.046126
262.179905
262.310771
262.434588
262.531746
262.627817
258.8028
258.816776
258.841802
258.8744
258.912312
258.954424
259.000263
259.049639
259.102448
259.158585
259.217917
259.28026
259.345382
259.413003
259.482798
259.554409
259.627437
259.70145
259.775983
259.850544
259.924618
259.997664
260.069123
260.138416
260.204953
260.268126
260.327318
260.381909
260.391749
260.439429
260.486872
260.533826
260.580123
260.62569
260.670559
260.714862
260.758811
260.802728
260.847069
260.892424
260.939504
260.98914
261.042278
261.099972
261.163376
261.233729
261.312323
261.395561
261.488292
261.586725
261.69124
261.80183
261.920069
262.044681
262.1736
262.303762
262.430839
262.550955
262.645725
262.738101
259.243323
259.256781
259.280855
259.312072
259.348111
259.387791
259.430597
259.476319
259.524848
259.576091
259.629924
259.686184
259.74466
259.805096
259.86719
259.930605
259.994966
260.059863
260.124859
260.189488
260.253259
260.315662
260.376164
260.434216
260.489254
260.540702
260.587972
260.591089
260.632203
260.67332
260.714183
260.754608
260.794498
260.833848
260.872786
260.911377
260.94991
260.988769
261.028449
261.069553
261.112794
261.158991
261.209065
261.264034
261.324998
261.393129
261.469636
261.550732
261.641477
261.737901
261.840302
261.948601
262.064224
262.185869
262.311476
262.43804
262.561349
262.677798
262.770206
262.8589
259.689388
259.702307
259.725403
259.755221
259.789387
259.826651
259.86645
259.908551
259.952843
259.999236
260.047622
260.09785
260.14973
260.203025
260.257458
260.312713
260.36844
260.424255
260.479746
260.534475
260.58798
260.639777
260.689364
260.736222
260.779815
260.819599
260.815647
260.849943
260.88446
260.918943
260.953204
260.987132
261.020695
261.053926
261.086931
261.119916
261.153196
261.187187
261.222403
261.259457
261.299058
261.342012
261.389211
261.441631
261.500314
261.566353
261.640861
261.719827
261.808516
261.902806
262.002939
262.108777
262.221621
262.340148
262.462317
262.585182
262.704657
262.817411
262.907541
262.992473
260.142672
260.15502
260.177091
260.205466
260.237726
260.272554
260.309339
260.347819
260.387875
260.429422
260.472363
260.516564
260.561852
260.608013
260.654793
260.701899
260.749006
260.795758
260.841771
260.886633
260.929912
260.971155
261.009888
261.045622
261.077856
261.066587
261.093914
261.121653
261.149561
261.17745
261.205204
261.232779
261.260158
261.287426
261.314762
261.342434
261.370801
261.40031
261.431504
261.465016
261.501574
261.541994
261.587179
261.638111
261.695839
261.761462
261.831233
261.910553
261.995449
262.086268
262.183099
262.285676
262.395121
262.510056
262.628427
262.747322
262.862783
262.971748
263.059746
263.14071
260.603867
260.615612
260.636606
260.663482
260.693789
260.726146
260.759888
260.794727
260.830531
260.867219
260.904702
260.942865
260.981553
261.020575
261.0597
261.098662
261.137163
261.174876
261.211445
261.24649
261.279609
261.310379
261.338359
261.363092
261.344368
261.364683
261.385572
261.406801
261.428189
261.449643
261.471031
261.492354
261.513683
261.535163
261.557017
261.579545
261.603131
261.628241
261.655424
261.685313
261.718622
261.756141
261.798734
261.847327
261.902896
261.966449
262.034012
262.111164
262.193853
262.282385
262.376787
262.476742
262.583257
262.694946
262.809775
262.924892
263.036487
263.141789
263.227722
263.304731
261.073015
261.084119
261.103973
261.129276
261.157561
261.187383
261.218027
261.249169
261.280666
261.312436
261.344399
261.376456
261.408473
261.440282
261.471677
261.502423
261.532253
261.560874
261.587967
261.613194
261.6362
261.656614
261.674046
261.647931
261.661437
261.675663
261.69038
261.705418
261.720609
261.735873
261.751195
261.766625
261.782281
261.79835
261.815088
261.832824
261.851963
261.872984
261.89644
261.92296
261.953242
261.988048
262.028202
262.074576
262.12808
262.189634
262.255052
262.330142
262.410698
262.496976
262.588952
262.686264
262.789818
262.898229
263.009489
263.120813
263.228542
263.330201
263.414111
263.487155
261.549624
261.560042
261.578674
261.602305
261.628457
261.655634
261.68306
261.710375
261.737415
261.764091
261.790327
261.816032
261.841084
261.865327
261.888571
261.910596
261.931147
261.949945
261.966683
261.981031
261.992632
261.961569
261.969579
261.97826
261.987447
261.99697
262.006685
262.016494
262.026353
262.03627
262.046303
262.05657
262.067245
262.078565
262.090833
262.104417
262.119754
262.137349
262.157777
262.181681
262.20977
262.242812
262.281637
262.327119
262.380166
262.436808
262.502955
262.574515
262.651802
262.73494
262.823799
262.917927
263.018103
263.122915
263.230369
263.337731
263.441485
263.539445
263.621352
263.690391
262.032794
262.042479
262.059809
262.081666
262.105581
262.130008
262.154115
262.177498
262.199969
262.221429
262.241801
262.260997
262.278904
262.295378
262.310242
262.323285
262.334267
262.34292
262.348941
262.312789
262.315455
262.318814
262.322698
262.326937
262.33139
262.335956
262.340571
262.345209
262.349889
262.354676
262.359682
262.365071
262.371062
262.377927
262.386001
262.395673
262.407398
262.421688
262.439116
262.460313
262.485964
262.516806
262.553618
262.597213
262.64842
262.703051
262.767232
262.836771
262.911945
262.992827
263.079237
263.170683
263.26786
263.369363
263.473235
263.57681
263.67673
263.771117
263.851101
263.916135
262.520535
262.529438
262.545381
262.565362
262.586941
262.608529
262.629242
262.64863
262.666478
262.682673
262.697134
262.709778
262.720498
262.729159
262.735592
262.739598
262.740936
262.700153
262.69813
262.696722
262.695787
262.695177
262.694767
262.694454
262.694168
262.693869
262.69355
262.693243
262.693018
262.692989
262.693311
262.694189
262.695877
262.698678
262.702949
262.709098
262.717588
262.728934
262.743704
262.762512
262.78602
262.814926
262.849963
262.891886
262.941449
262.994257
263.056692
263.1244
263.19761
263.276344
263.360378
263.449181
263.543367
263.641554
263.741834
263.841618
263.93771
264.028543
264.106554
264.167536
263.008128
263.016184
263.030624
263.048583
263.067671
263.086276
263.103466
263.118755
263.131902
263.142789
263.151343
263.157499
263.161208
263.162296
263.160585
263.116369
263.111037
263.106149
263.101587
263.097223
263.092946
263.088667
263.084319
263.079861
263.07528
263.070592
263.065845
263.061123
263.056546
263.052272
263.048503
263.045481
263.043495
263.042882
263.044024
263.047353
263.05335
263.062545
263.075515
263.092881
263.115305
263.143491
263.17817
263.220091
263.265034
263.319478
263.379164
263.444359
263.515199
263.591625
263.673352
263.759812
263.850099
263.944263
264.040408
264.136006
264.228006
264.315078
264.390511
264.447241
263.485604
263.492664
263.505304
263.52081
263.536862
263.551846
263.564772
263.575114
263.582567
263.586921
263.587983
263.547016
263.543443
263.539734
263.535754
263.531423
263.526736
263.52166
263.516167
263.510234
263.50385
263.497017
263.489754
263.482098
263.474107
263.465868
263.457488
263.44911
263.440904
263.433078
263.425872
263.419567
263.414483
263.410978
263.409456
263.410358
263.41417
263.421416
263.432658
263.448493
263.46955
263.496484
263.529964
263.570663
263.614131
263.667087
263.725166
263.788617
263.857531
263.931814
264.01114
264.094912
264.182213
264.273068
264.365626
264.457476
264.545741
264.629309
264.702345
264.754847
263.939178
263.944821
263.954781
263.96642
263.977379
263.948743
263.95599
263.96247
263.967809
263.971821
263.974437
263.975668
263.975607
263.974317
263.971852
263.968264
263.963604
263.957919
263.951261
263.943686
263.935255
263.926041
263.91613
263.905622
263.894635
263.883312
263.871814
263.860331
263.84908
263.838309
263.828297
263.819357
263.811838
263.806125
263.802637
263.801836
263.804215
263.810305
263.820672
263.835912
263.856649
263.883533
263.917221
263.953394
263.998868
264.049332
264.105047
264.16617
264.23271
264.304499
264.381154
264.462037
264.546205
264.633645
264.72254
264.810595
264.895104
264.97517
265.045832
265.094041
264.330932
264.336965
264.348029
264.361909
264.376984
264.391684
264.404954
264.416308
264.425533
264.432582
264.437494
264.440355
264.441272
264.440353
264.437709
264.433447
264.42767
264.420481
264.411982
264.402282
264.391493
264.379736
264.367144
264.353862
264.340055
264.325902
264.311605
264.29739
264.283507
264.27023
264.257866
264.246747
264.237239
264.229736
264.224666
264.222485
264.223681
264.22877
264.238292
264.252812
264.272912
264.299185
264.332224
264.367485
264.412054
264.461503
264.516077
264.575901
264.640955
264.711045
264.78577
264.864489
264.946275
265.029856
265.114694
265.198612
265.27908
265.355416
265.423557
265.467286
264.844075
264.850017
264.861014
264.874918
264.889797
264.904179
264.917104
264.928029
264.936694
264.94301
264.946994
264.948712
264.948261
264.945751
264.941295
264.935007
264.927004
264.917401
264.906319
264.89388
264.880215
264.865462
264.84977
264.833301
264.816233
264.798758
264.781091
264.763464
264.746443
264.731235
264.717131
264.704479
264.693658
264.685073
264.679157
264.676371
264.677202
264.682162
264.691785
264.706628
264.727261
264.754261
264.783179
264.821203
264.863935
264.911616
264.964409
265.022361
265.085381
265.153215
265.225414
265.3013
265.379927
265.460022
265.539868
265.618536
265.693629
265.764551
265.828223
265.823694
265.389915
265.395473
265.405855
265.419031
265.433148
265.446748
265.458847
265.468863
265.476499
265.481642
265.484291
265.484508
265.482393
265.478061
265.47164
265.463261
265.453059
265.441172
265.427743
265.412918
265.396852
265.379709
265.361662
265.342898
265.323616
265.304034
265.284384
265.26492
265.245913
265.227658
265.21047
265.19469
265.182077
265.172918
265.166607
265.163589
265.164333
265.169323
265.179062
265.194061
265.214842
265.241918
265.270611
265.308411
265.350778
265.397937
265.450019
265.507038
265.568875
265.635254
265.705712
265.779569
265.855895
265.933441
266.010566
266.08537
266.156692
266.224178
266.285667
266.276012
265.956211
265.961333
265.97101
265.983346
265.996594
266.009335
266.020576
266.029707
266.036398
266.040512
266.042032
266.041014
266.037557
266.031783
266.023832
266.013849
266.001985
265.988399
265.973252
265.956712
265.938957
265.92017
265.900548
265.880297
265.859639
265.83881
265.81806
265.79766
265.777896
265.759076
265.741526
265.725595
265.711651
265.700082
265.692016
265.689822
265.691583
265.697776
265.708889
265.72542
265.747862
265.771595
265.804227
265.841234
265.882844
265.92922
265.980435
266.036452
266.097108
266.16209
266.230912
266.302888
266.377091
266.452278
266.526899
266.599189
266.667035
266.731362
266.790899
266.775973
266.541355
266.546044
266.555029
266.566552
266.578987
266.590971
266.601515
266.609986
266.616024
266.619467
266.620277
266.618501
266.614234
266.607603
266.598751
266.587837
266.575026
266.56049
266.544408
266.526968
266.508362
266.488794
266.468478
266.447639
266.426513
266.405353
266.384424
266.364009
266.344406
266.325933
266.308922
266.293728
266.280721
266.27029
266.262842
266.258803
266.259913
266.268018
266.281182
266.299878
266.319508
266.347798
266.380254
266.417108
266.458543
266.50467
266.555514
266.610996
266.670918
266.734942
266.802571
266.873119
266.945675
267.01901
267.091678
267.16206
267.228144
267.290127
267.347651
267.327142
267.14764
267.151914
267.160247
267.171018
267.182734
267.194099
267.204143
267.212215
267.21793
267.221097
267.221659
267.219645
267.215143
267.208277
267.199196
267.188061
267.175048
267.160341
267.14413
267.126614
267.108002
267.088508
267.06836
267.047795
267.027059
267.006415
266.986135
266.966508
266.947836
266.930436
266.91464
266.900794
266.88926
266.880415
266.874646
266.872354
266.873952
266.879858
266.893171
266.913465
266.934339
266.963888
266.997438
267.035207
267.077351
267.123956
267.175018
267.230437
267.289998
267.353353
267.420002
267.489275
267.560275
267.631808
267.702546
267.770999
267.835263
267.895822
267.953224
267.927747
267.779156
267.783041
267.790773
267.800865
267.811962
267.822851
267.832591
267.840524
267.846244
267.84953
267.850301
267.84857
267.844411
267.837942
267.829308
267.818675
267.806222
267.792138
267.776624
267.759888
267.742146
267.723624
267.704557
267.685192
267.665784
267.6466
267.627921
267.610037
267.593254
267.577888
267.56427
267.552743
267.543662
267.537397
267.534322
267.534827
267.539308
267.548168
267.561805
267.57557
267.601756
267.631898
267.665975
267.704155
267.746546
267.793184
267.844026
267.898934
267.957663
268.019845
268.084973
268.152368
268.221121
268.290117
268.358142
268.423753
268.485157
268.543557
268.599078
268.567642
268.441189
268.44471
268.451897
268.461386
268.471964
268.482513
268.492132
268.500168
268.506197
268.509973
268.511391
268.510439
268.507177
268.501712
268.494181
268.484748
268.473592
268.460904
268.446889
268.431758
268.415734
268.399048
268.381941
268.364661
268.34747
268.330637
268.314443
268.299179
268.285149
268.272665
268.262053
268.253646
268.247792
268.244844
268.245163
268.249121
268.257091
268.269445
268.281483
268.301332
268.335843
268.352137
268.387037
268.425856
268.46866
268.515446
268.566135
268.620561
268.678455
268.739435
268.80299
268.868444
268.934873
269.001254
269.066497
269.129203
269.187694
269.244058
269.29759
269.259806
269.088748
269.092057
269.099011
269.108336
269.118941
269.129793
269.140027
269.148995
269.156253
269.161528
269.211107
269.211393
269.209543
269.205648
269.199836
269.192261
269.183097
269.172535
269.160775
269.148031
269.134526
269.120491
269.106168
269.091806
269.077664
269.06401
269.051123
269.03929
269.028807
269.019979
269.013122
269.008559
269.00662
269.007642
269.011969
269.019949
269.031926
269.043122
269.06189
269.083603
269.108466
269.161689
269.177966
269.20529
269.248764
269.295914
269.346631
269.400723
269.457906
269.517788
269.579853
269.643408
269.707579
269.771454
269.833992
269.893865
269.949516
270.003985
270.055603
270.011076
269.826091
269.829086
269.8356
269.844461
269.854724
269.865465
269.875889
269.88537
269.893464
269.899883
269.904467
269.907157
269.907969
269.906975
269.904288
269.900051
269.894431
269.933865
269.925063
269.91543
269.905186
269.894558
269.883785
269.87311
269.862788
269.853081
269.84426
269.836603
269.830397
269.825935
269.823518
269.823453
269.826054
269.831637
269.840525
269.853032
269.867821
269.888425
269.911171
269.936197
269.963626
270.040115
270.058716
270.080762
270.106325
270.140299
270.19122
270.245131
270.301734
270.360635
270.421314
270.483045
270.545046
270.606526