/*--------------------------------*- C++ -*----------------------------------*\
  =========                 |
  \\      /  F ield         | OpenFOAM: The Open Source CFD Toolbox
   \\    /   O peration     | Website:  https://openfoam.org
    \\  /    A nd           | Version:  11
     \\/     M anipulation  |
\*---------------------------------------------------------------------------*/
FoamFile
{
    format      ascii;
    class       volScalarField;
    location    "1.6331e-05";
    object      T.gas;
}
// * * * * * * * * * * * * * * * * * * * * * * * * * * * * * * * * * * * * * //

dimensions      [0 0 0 1 0 0 0];

internalField   nonuniform List<scalar> 
120000
(
293.058842
293.058911
293.05905
293.059259
293.059538
293.05989
293.060315
293.060815
293.061392
293.062047
293.062785
293.063606
293.064515
293.065514
293.066607
293.067798
293.06909
293.070487
293.071995
293.073617
293.075358
293.077223
293.079217
293.081344
293.08361
293.08602
293.088577
293.091286
293.094152
293.097177
293.100364
293.103715
293.107232
293.110912
293.114756
293.118757
293.12291
293.127206
293.13163
293.136167
293.140793
293.145479
293.150187
293.154871
293.159472
293.163913
293.168103
293.171925
293.175236
293.177859
293.179582
293.180152
293.179284
293.176669
293.17202
293.165144
293.156094
293.145456
293.132918
293.123939
293.071955
293.0721
293.072389
293.072824
293.073406
293.074136
293.075015
293.076045
293.077229
293.078568
293.080066
293.081725
293.083548
293.085537
293.087696
293.090028
293.092536
293.095221
293.098087
293.101134
293.104364
293.107778
293.111373
293.115148
293.1191
293.123222
293.127508
293.131947
293.136526
293.14123
293.146037
293.150924
293.155861
293.160813
293.165739
293.17059
293.17531
293.179836
293.184091
293.187992
293.191443
293.194336
293.196552
293.197959
293.198411
293.197755
293.195826
293.192454
293.18747
293.180712
293.172042
293.161362
293.148632
293.133911
293.117401
293.099499
293.081708
293.064102
293.044019
293.031692
293.086093
293.086306
293.086732
293.087372
293.088227
293.089298
293.090587
293.092095
293.093825
293.095778
293.097957
293.100364
293.103001
293.105872
293.108977
293.112319
293.115898
293.119715
293.12377
293.128061
293.132585
293.137338
293.142312
293.147499
293.152888
293.158463
293.164207
293.170097
293.176107
293.182204
293.18835
293.194502
293.200608
293.206609
293.212439
293.218019
293.223265
293.22808
293.232357
293.235977
293.238812
293.240721
293.241556
293.241158
293.239364
293.236003
293.230913
293.223934
293.214915
293.203733
293.19031
293.174628
293.156752
293.136857
293.116138
293.094097
293.072349
293.052
293.029507
293.017133
293.101581
293.101852
293.102396
293.103212
293.104301
293.105666
293.107307
293.109226
293.111426
293.113907
293.116673
293.119725
293.123064
293.126692
293.13061
293.134818
293.139314
293.144099
293.149167
293.154515
293.160135
293.166019
293.172156
293.178531
293.185125
293.191918
293.198882
293.205987
293.213196
293.220466
293.227749
293.234987
293.242116
293.249065
293.255751
293.262084
293.267963
293.27328
293.277913
293.281733
293.284601
293.28637
293.286887
293.285994
293.283531
293.279332
293.273251
293.265161
293.258424
293.245907
293.2309
293.213418
293.193552
293.168776
293.145966
293.122878
293.100345
293.079519
293.05671
293.046337
293.117917
293.118234
293.118867
293.119818
293.121091
293.122688
293.12461
293.126861
293.129443
293.132357
293.135605
293.139188
293.143107
293.147361
293.151951
293.156875
293.162129
293.16771
293.173613
293.179828
293.186348
293.193158
293.200243
293.207585
293.21516
293.222942
293.230899
293.238993
293.247182
293.255416
293.263639
293.271789
293.279795
293.287577
293.295048
293.302113
293.308666
293.314595
293.319778
293.324085
293.327383
293.329532
293.330387
293.329801
293.331051
293.327099
293.321046
293.31277
293.302168
293.289158
293.273706
293.255842
293.236115
293.214532
293.191909
293.165333
293.143181
293.122884
293.100594
293.092492
293.1345
293.134843
293.135532
293.136573
293.137972
293.139734
293.141866
293.144369
293.147246
293.1505
293.15413
293.158136
293.162519
293.167276
293.172405
293.177902
293.183763
293.189982
293.196549
293.203455
293.210687
293.21823
293.226064
293.234167
293.242512
293.251069
293.259803
293.268671
293.277628
293.28662
293.295587
293.304464
293.313176
293.321642
293.329772
293.33747
293.344631
293.351142
293.356884
293.361734
293.365561
293.368228
293.373058
293.372949
293.371019
293.367124
293.361128
293.352913
293.342379
293.329461
293.314136
293.296858
293.277533
293.256831
293.235179
293.213176
293.191634
293.168392
293.146961
293.140584
293.150856
293.151206
293.151914
293.152995
293.154464
293.156332
293.158606
293.161291
293.164389
293.167901
293.171824
293.176159
293.180901
293.186049
293.191597
293.19754
293.203871
293.210582
293.217661
293.225096
293.232872
293.240971
293.24937
293.258046
293.266968
293.276103
293.285413
293.294854
293.304376
293.313925
293.323439
293.332851
293.342084
293.351058
293.359684
293.367866
293.375503
293.382486
293.388705
293.39404
293.401748
293.404898
293.406534
293.406509
293.404682
293.400914
293.39508
293.387071
293.376801
293.364221
293.349323
293.332586
293.313908
293.293957
293.27315
293.252068
293.231493
293.212505
293.188406
293.183358
293.166699
293.167035
293.167726
293.168805
293.170296
293.172219
293.174584
293.177393
293.180649
293.184349
293.188491
293.193071
293.198084
293.203524
293.209386
293.215662
293.222342
293.229417
293.236872
293.244694
293.252865
293.261363
293.270166
293.279246
293.288571
293.298106
293.30781
293.317638
293.327538
293.337454
293.347324
293.357077
293.36664
293.375931
293.384861
293.393335
293.401257
293.408519
293.415012
293.424033
293.428592
293.431771
293.433432
293.43344
293.431659
293.427963
293.422236
293.414381
293.404327
293.392036
293.37751
293.36125
293.343133
293.323827
293.303737
293.283425
293.263645
293.245437
293.221935
293.217904
293.181909
293.182212
293.182857
293.183897
293.185376
293.187317
293.189731
293.19262
293.195982
293.199814
293.204111
293.208865
293.214071
293.219721
293.225807
293.232318
293.239244
293.246572
293.254288
293.262373
293.270809
293.279574
293.28864
293.297979
293.307558
293.317338
293.327279
293.337332
293.347445
293.357561
293.367616
293.377542
293.387263
293.396698
293.40576
293.414357
293.422394
293.429767
293.439769
293.445445
293.449875
293.452926
293.454466
293.454362
293.452484
293.448711
293.442931
293.435053
293.425007
293.412752
293.398693
293.382633
293.365129
293.346471
293.327066
293.307469
293.288414
293.270908
293.247953
293.244685
293.196489
293.196743
293.197318
293.198298
293.19974
293.201672
293.204104
293.207037
293.210465
293.214382
293.21878
293.223651
293.228985
293.234774
293.241007
293.247672
293.254757
293.262246
293.270123
293.27837
293.286964
293.295881
293.305094
293.314571
293.324277
293.334174
293.344217
293.354359
293.364546
293.37472
293.384818
293.394771
293.404503
293.413936
293.422987
293.431566
293.439581
293.450296
293.456847
293.462281
293.466472
293.469294
293.470618
293.470317
293.46827
293.46436
293.45849
293.450576
293.44056
293.428411
293.414555
293.398788
293.381668
293.363479
293.344621
293.325638
293.307244
293.290421
293.271682
293.265351
293.210516
293.210713
293.211207
293.212112
293.213502
293.215406
293.217834
293.220781
293.224242
293.228205
293.232661
293.237599
293.243008
293.248878
293.255195
293.261946
293.269117
293.276692
293.28465
293.292973
293.301636
293.310614
293.319877
293.329392
293.339124
293.34903
293.359067
293.369185
293.37933
293.389443
293.399459
293.409309
293.418918
293.428207
293.437093
293.445484
293.453283
293.463872
293.470156
293.475306
293.479208
293.48174
293.482784
293.482221
293.479938
293.475829
293.469805
293.461795
293.451745
293.439634
293.425901
293.410328
293.393482
293.375644
293.357206
293.338698
293.320812
293.304496
293.286268
293.280317
293.224119
293.224255
293.224662
293.225487
293.226814
293.228678
293.231082
293.234022
293.237487
293.241464
293.245942
293.250907
293.256347
293.262249
293.268599
293.275382
293.282581
293.290178
293.298153
293.306483
293.315145
293.32411
293.333348
293.342824
293.3525
293.362336
293.372285
293.382298
293.392319
293.402291
293.412148
293.421822
293.431242
293.440329
293.449002
293.457171
293.468156
293.475019
293.480872
293.485602
293.489096
293.491236
293.491908
293.491
293.488404
293.484024
293.477781
293.469608
293.45946
293.447324
293.433651
293.418209
293.401572
293.384017
293.365931
293.347829
293.330384
293.314509
293.296727
293.291096
293.23744
293.237517
293.237839
293.238582
293.239842
293.241654
293.24402
293.246933
293.250379
293.254344
293.258813
293.263772
293.269206
293.275101
293.281441
293.288209
293.295388
293.302957
293.310895
293.319178
293.32778
293.336672
293.345823
293.355196
293.364753
293.374451
293.384245
293.394085
293.403915
293.413676
293.423307
293.43274
293.441906
293.450729
293.459129
293.470359
293.477641
293.484024
293.489399
293.493658
293.49669
293.498383
293.498628
293.497318
293.494354
293.48965
293.483132
293.474743
293.464448
293.452241
293.438593
293.423254
293.406798
293.3895
293.371738
293.354014
293.336977
293.321513
293.304143
293.298794
293.250628
293.25065
293.250891
293.251553
293.252742
293.254493
293.256809
293.259679
293.263086
293.267015
293.27145
293.276375
293.281772
293.287627
293.293921
293.300637
293.307754
293.315253
293.323109
293.331298
293.339793
293.348562
293.357573
293.366789
293.37617
293.385674
293.395253
293.404857
293.414429
293.423912
293.433242
293.442353
293.451173
293.459625
293.467628
293.478521
293.485352
293.491265
293.49616
293.499933
293.502479
293.503692
293.503468
293.501707
293.498316
293.493213
293.486328
293.477603
293.467003
293.454926
293.441077
293.425955
293.409758
293.392767
293.375358
293.358025
293.341399
293.32634
293.309365
293.304279
293.263822
293.263794
293.26396
293.264542
293.265656
293.26734
293.269594
293.272405
293.275757
293.279632
293.28401
293.288876
293.29421
293.299996
293.306214
293.312844
293.319867
293.32726
293.334998
293.343055
293.351402
293.360008
293.368838
293.377856
293.387021
293.396289
293.405613
293.414942
293.424222
293.433395
293.4424
293.451172
293.459641
293.467733
293.478722
293.485821
293.492104
293.497475
293.501835
293.505082
293.507115
293.507833
293.507136
293.504931
293.501135
293.495673
293.488481
293.479509
293.468734
293.456569
293.442712
293.427663
293.411618
293.394851
293.37773
293.360736
293.34448
293.329791
293.313188
293.308344
293.277144
293.277073
293.277169
293.277673
293.27871
293.280318
293.2825
293.28524
293.288521
293.292323
293.296625
293.30141
293.306658
293.31235
293.318465
293.324983
293.331882
293.339138
293.346725
293.354616
293.362782
293.371189
293.379803
293.388585
293.397494
293.406487
293.415515
293.424527
293.433469
293.442284
293.45091
293.459278
293.467321
293.474964
293.485562
293.492164
293.497935
293.502786
293.506624
293.509354
293.510879
293.511106
293.509943
293.507305
293.503115
293.497305
293.489818
293.480612
293.469671
293.457422
293.443548
293.428557
293.412645
293.396084
293.379233
293.362559
293.346655
293.33232
293.316073
293.311457
293.290703
293.290592
293.290623
293.29105
293.292005
293.293532
293.295631
293.298289
293.301484
293.305197
293.309406
293.31409
293.319231
293.324806
293.330795
293.337176
293.343924
293.351017
293.358426
293.366124
293.374079
293.382259
293.390627
293.399145
293.407772
293.416463
293.425171
293.433846
293.442435
293.45088
293.459121
293.467094
293.474734
293.485333
293.492091
293.498113
293.503311
293.507596
293.510877
293.513062
293.514061
293.513783
293.512144
293.509066
293.50448
293.498321
293.490539
293.481101
293.469996
293.457666
293.443776
293.428844
293.413066
293.396707
293.380122
293.363763
293.348204
293.334215
293.318316
293.31392
293.304586
293.30444
293.30441
293.30476
293.30563
293.307067
293.309075
293.311637
293.314733
293.318342
293.32244
293.327007
293.33202
293.337459
293.3433
293.34952
293.356095
293.362999
293.370204
293.377682
293.3854
293.393324
293.401418
293.409643
293.417957
293.426314
293.43467
293.442972
293.451166
293.459195
293.466997
293.474509
293.481666
293.491841
293.49807
293.503548
293.508194
293.511924
293.514653
293.516294
293.516763
293.515974
293.513855
293.510333
293.505344
293.498829
293.490748
293.481074
293.469807
293.457403
293.443511
293.428652
293.41302
293.396877
293.380567
293.364529
293.349317
293.335673
293.320118
293.315937
293.318865
293.318688
293.318599
293.318871
293.319651
293.320993
293.322899
293.325355
293.328339
293.331829
293.335801
293.340233
293.345101
293.350383
293.356056
293.362095
293.368474
293.375168
293.382148
293.389384
293.396842
293.40449
293.412289
293.420202
293.428185
293.436197
293.444188
293.452109
293.459906
293.467523
293.474902
293.481981
293.492079
293.498366
293.503984
293.508853
293.512895
293.516028
293.518168
293.519233
293.519141
293.517816
293.515185
293.51118
293.505736
293.498802
293.490336
293.480315
293.46914
293.456434
293.442664
293.427973
293.412559
293.396683
293.380685
293.364994
293.350146
293.336855
293.321645
293.31768
293.333598
293.333393
293.333246
293.333439
293.334126
293.335364
293.337159
293.339498
293.342357
293.345714
293.349544
293.353824
293.358529
293.363636
293.36912
293.374957
293.381121
293.387582
293.394314
293.401285
293.408461
293.415809
293.423292
293.430871
293.438504
293.446148
293.453755
293.461276
293.468659
293.475852
293.482797
293.492765
293.499041
293.504722
293.509733
293.513998
293.517441
293.519982
293.521543
293.522045
293.521413
293.519577
293.516469
293.512023
293.506184
293.498906
293.490156
293.479918
293.46861
293.455844
293.442088
293.427485
293.412229
293.396577
293.380858
293.365487
293.350982
293.338029
293.323154
293.319399
293.348831
293.348599
293.348396
293.348508
293.349097
293.350224
293.3519
293.354109
293.356831
293.360041
293.363713
293.367824
293.372348
293.377261
293.382538
293.388152
293.394077
293.400285
293.406745
293.413426
293.420296
293.427319
293.434458
293.441674
293.448925
293.456164
293.463347
293.470424
293.477342
293.484048
293.490486
293.500015
293.50574
293.510855
293.515291
293.518978
293.521842
293.523809
293.524807
293.524763
293.523611
293.521283
293.517715
293.51285
293.506638
293.499039
293.490028
293.479595
293.468169
293.455347
293.441607
293.427091
293.411991
293.396558
293.381113
293.366057
293.351889
293.339267
293.324721
293.32117
293.364601
293.364342
293.364084
293.364113
293.364599
293.36561
293.367156
293.369226
293.371798
293.374847
293.378347
293.382273
293.3866
293.391302
293.396354
293.401727
293.407396
293.413331
293.419501
293.425877
293.432424
293.439108
293.445889
293.452729
293.459587
293.466418
293.473176
293.479815
293.486284
293.49253
293.501875
293.507519
293.51262
293.517113
293.52093
293.524003
293.526262
293.527635
293.528057
293.527459
293.525779
293.522954
293.518924
293.513638
293.507052
293.499135
293.489867
293.479246
293.467716
293.454855
293.441148
293.426734
293.411804
293.396603
293.38144
293.366705
293.352876
293.340584
293.326366
293.323018
293.380934
293.380651
293.380337
293.380282
293.380662
293.381548
293.382956
293.384876
293.387285
293.39016
293.393474
293.397201
293.401315
293.40579
293.410598
293.415714
293.421109
293.426754
293.432619
293.438672
293.444879
293.451204
293.457611
293.46406
293.470511
293.47692
293.483243
293.489433
293.495441
293.504557
293.510058
293.515074
293.519544
293.523407
293.526595
293.529043
293.530685
293.531454
293.531288
293.530124
293.527898
293.524551
293.520029
293.514283
293.507272
293.498967
293.489349
293.478819
293.466941
293.454156
293.44057
293.42633
293.411623
293.396692
293.381842
293.367448
293.353971
293.342018
293.328128
293.324985
293.397853
293.397545
293.397177
293.397036
293.397304
293.398059
293.399321
293.40108
293.403316
293.406003
293.409117
293.412629
293.416514
293.420745
293.425295
293.430136
293.43524
293.440577
293.446117
293.451828
293.457675
293.463625
293.469639
293.475681
293.481709
293.487681
293.493554
293.499282
293.508132
293.513437
293.518312
293.522699
293.526539
293.529772
293.532335
293.534164
293.535199
293.535381
293.534646
293.532936
293.530193
293.526362
293.521393
293.515245
293.507884
293.499285
293.489437
293.478757
293.466793
293.453994
293.440463
293.426344
293.411823
293.397134
293.382573
293.368502
293.355363
293.343736
293.330166
293.327222
293.415372
293.415041
293.414618
293.41439
293.414543
293.41516
293.416267
293.417855
293.419905
293.422393
293.425293
293.428576
293.432217
293.436187
293.440461
293.445009
293.449803
293.454813
293.460009
293.465359
293.470829
293.476385
293.48199
293.487607
293.493196
293.498716
293.504124
293.512674
293.517736
293.522417
293.526664
293.53042
293.53363
293.536234
293.53817
293.539388
293.539828
293.539432
293.538141
293.535899
293.532653
293.528355
293.522961
293.516433
293.508743
293.499873
293.489818
293.479003
293.466963
293.454154
293.440681
293.426684
293.412348
293.3979
293.383625
293.369872
293.357065
293.345759
293.332505
293.329758
293.433506
293.433153
293.432675
293.432359
293.432393
293.432868
293.433811
293.435219
293.437072
293.439348
293.442019
293.445058
293.448438
293.452132
293.456111
293.460348
293.464814
293.469479
293.474313
293.479284
293.484359
293.489503
293.494681
293.499855
293.504988
293.51004
293.518258
293.523033
293.52747
293.53152
293.535133
293.538253
293.540827
293.5428
293.544119
293.544729
293.544575
293.543601
293.541754
293.538983
293.53524
293.53048
293.524665
293.517764
293.509754
293.500623
293.490371
293.479439
293.46734
293.45454
293.441141
293.427284
293.413145
293.398949
293.384969
293.371539
293.359066
293.34808
293.335133
293.332588
293.452268
293.451894
293.451363
293.450958
293.450871
293.451197
293.45197
293.453188
293.454834
293.456884
293.459314
293.462094
293.465198
293.468599
293.472268
293.476177
293.480298
293.4846
293.489054
293.493628
293.49829
293.503005
293.507738
293.512454
293.517115
293.524975
293.52942
293.533568
293.537373
293.540786
293.543756
293.546233
293.548168
293.549509
293.550204
293.550201
293.549445
293.547887
293.545475
293.542161
293.537902
293.532656
293.526389
293.519072
293.510684
293.501215
293.49107
293.479757
293.467706
293.454997
293.441741
293.428075
293.414176
293.400263
293.3866
293.373511
293.361383
293.350721
293.338068
293.335738
293.471678
293.471284
293.470702
293.470208
293.469998
293.470172
293.470767
293.471787
293.473215
293.47503
293.477206
293.479714
293.482529
293.485622
293.488966
293.492532
293.496292
293.500215
293.504273
293.508434
293.512666
293.516936
293.521209
293.525451
293.532931
293.537012
293.540832
293.544347
293.547513
293.55028
293.552607
293.554446
293.555748
293.556463
293.556541
293.555933
293.55459
293.552464
293.549509
293.545683
293.540945
293.535259
293.528597
293.520934
293.512256
293.502557
293.492258
293.48085
293.468769
293.456097
293.442939
293.429432
293.415749
293.402098
293.388737
293.375974
293.36418
293.353832
293.341466
293.339349
293.491762
293.49135
293.490719
293.490138
293.489804
293.489823
293.490238
293.491053
293.492257
293.493827
293.495739
293.497967
293.500481
293.503256
293.506263
293.509475
293.512861
293.516394
293.520044
293.523779
293.527567
293.531377
293.535174
293.542253
293.545935
293.549387
293.552569
293.555439
293.557956
293.560079
293.561761
293.562958
293.563623
293.563709
293.56317
293.561959
293.560032
293.557345
293.553857
293.549527
293.544322
293.538211
293.531169
293.523177
293.514226
293.504317
293.493882
293.482393
293.470296
293.45767
293.44462
293.43128
293.417817
293.404433
293.391375
293.378939
293.367476
293.357438
293.345355
293.343449
293.512558
293.512129
293.511452
293.510788
293.510332
293.510196
293.510427
293.511035
293.512011
293.513333
293.514977
293.516919
293.51913
293.521584
293.524253
293.52711
293.530127
293.533275
293.536525
293.539847
293.543211
293.549855
293.553223
293.556433
293.559449
293.562233
293.564746
293.56695
293.568802
293.57026
293.571281
293.571822
293.571837
293.571284
293.570118
293.568296
293.565776
293.562518
293.558483
293.553635
293.547942
293.541377
293.533918
293.525548
293.516259
293.506458
293.495611
293.484137
293.4721
293.459583
293.446691
293.433558
293.420347
293.407253
293.394515
293.382417
293.371291
293.361567
293.349763
293.348071
293.534106
293.533663
293.532943
293.532198
293.531623
293.531333
293.53138
293.531779
293.532522
293.533591
293.534963
293.536613
293.538516
293.540643
293.54297
293.545468
293.548111
293.55087
293.553718
293.55986
293.562812
293.565666
293.568391
293.570951
293.573313
293.57544
293.577292
293.578833
293.580022
293.58082
293.581184
293.581074
293.580449
293.579267
293.577488
293.575072
293.571981
293.568177
293.563628
293.5583
293.552167
293.545205
293.537397
293.528732
293.519206
293.509239
293.498281
293.486757
293.474732
293.462287
293.449526
293.436577
293.4236
293.410782
293.398351
293.38658
293.375781
293.366362
293.354832
293.353349
293.556469
293.556015
293.555257
293.554436
293.553745
293.553302
293.553165
293.553351
293.553857
293.554668
293.555761
293.557113
293.558698
293.560491
293.562466
293.564597
293.566857
293.572441
293.574891
293.577296
293.579626
293.581851
293.583938
293.585854
293.587565
293.589035
293.590228
293.591107
293.591635
293.591774
293.591486
293.590731
293.589471
293.587668
293.585286
293.582287
293.578636
293.574302
293.569253
293.563462
293.556907
293.549567
293.541431
293.532491
293.522749
293.512638
293.501585
293.490027
293.478027
293.465666
293.453045
293.44029
293.427552
293.415014
293.402893
293.391448
293.380974
293.371856
293.3606
293.359327
293.579768
293.579305
293.578515
293.577625
293.576825
293.576234
293.575914
293.575888
293.576155
293.576703
293.577511
293.578556
293.579811
293.581255
293.582863
293.587842
293.589715
293.591587
293.593431
293.595219
293.596923
293.598511
293.599953
293.601216
293.602269
293.603076
293.603605
293.603819
293.603683
293.603162
293.602219
293.600817
293.598923
293.596499
293.593512
293.589928
293.585715
293.580843
293.575286
293.569018
293.56202
293.554274
293.54577
293.536503
293.526884
293.516338
293.505282
293.493765
293.481853
293.469627
293.457188
293.44466
293.432189
293.41995
293.408152
293.397042
293.386898
293.37808
293.367123
293.366062
293.604224
293.603757
293.602943
293.601997
293.601102
293.600378
293.599893
293.599674
293.599723
293.600031
293.600582
293.604503
293.605495
293.606583
293.607747
293.608959
293.610195
293.611426
293.612624
293.613762
293.61481
293.615738
293.616516
293.617112
293.617495
293.617633
293.617491
293.617038
293.616239
293.61506
293.613469
293.611431
293.608913
293.605884
293.602311
293.598165
293.593417
293.588041
293.582014
293.575316
293.567929
293.559842
293.551049
293.54155
293.531769
293.521112
293.510004
293.498494
293.486645
293.474536
293.462267
293.449956
293.437745
293.4258
293.414321
293.40354
293.393717
293.385194
293.374531
293.373681
293.630086
293.629625
293.628807
293.627835
293.626888
293.629108
293.628547
293.628161
293.627958
293.627933
293.62807
293.628351
293.628749
293.629242
293.629803
293.630405
293.631024
293.63163
293.632196
293.632696
293.633099
293.633376
293.633499
293.633437
293.633159
293.632635
293.631833
293.630722
293.62927
293.627445
293.625216
293.622553
293.619424
293.615799
293.611651
293.606951
293.601675
293.595799
293.589302
293.582167
293.574379
293.565929
293.556811
293.547435
293.537203
293.526522
293.515434
293.503989
293.492251
293.480301
293.468235
293.456167
293.444235
293.432599
293.421449
293.411005
293.401506
293.393278
293.382905
293.38227
293.660792
293.660227
293.659193
293.657905
293.656664
293.655555
293.65457
293.653744
293.653085
293.652588
293.652238
293.652014
293.651894
293.651854
293.651869
293.651914
293.651961
293.651984
293.651958
293.651854
293.651645
293.651303
293.6508
293.650107
293.649196
293.648037
293.646601
293.644859
293.642781
293.640338
293.637502
293.634243
293.630536
293.626351
293.621666
293.616455
293.610696
293.60437
293.59746
293.589952
293.581835
293.573105
293.563761
293.554226
293.54388
293.533142
293.52205
293.510656
293.499022
293.487226
293.475361
293.463538
293.451887
293.44056
293.429741
293.419632
293.410457
293.402523
293.392438
293.392018
293.691011
293.690412
293.689297
293.687873
293.686322
293.684781
293.683335
293.682028
293.680876
293.679875
293.679013
293.678268
293.677617
293.677033
293.676489
293.675957
293.675409
293.674815
293.674146
293.673372
293.672464
293.67139
293.670122
293.668627
293.666875
293.664834
293.662474
293.659763
293.656766
293.653732
293.650315
293.646487
293.642225
293.637505
293.632303
293.626598
293.620372
293.613608
293.60629
293.598408
293.589953
293.580923
293.571725
293.56174
293.551371
293.540651
293.529623
293.518337
293.506858
293.495261
293.483638
293.472096
293.46076
293.449776
293.439319
293.42958
293.420763
293.413161
293.403411
293.406664
293.720692
293.720077
293.718917
293.717403
293.71571
293.713973
293.71228
293.71068
293.709192
293.707818
293.706547
293.705362
293.704242
293.703162
293.702098
293.701022
293.699909
293.698731
293.697461
293.69607
293.694531
293.692816
293.690897
293.688744
293.68633
293.683625
293.680603
293.677233
293.673488
293.669341
293.664765
293.659733
293.654642
293.649428
293.643755
293.637607
293.630967
293.623822
293.616162
293.607978
293.599266
293.590028
293.580685
293.570595
293.560172
293.54945
293.538468
293.527278
293.515943
293.504535
293.493142
293.481868
293.47083
293.460168
293.450047
293.440642
293.432144
293.424828
293.415353
293.418871
293.750376
293.749754
293.748562
293.74698
293.745169
293.743263
293.741349
293.739481
293.737683
293.735959
293.734305
293.732704
293.731139
293.729588
293.728028
293.726434
293.724781
293.723045
293.721199
293.719218
293.717076
293.714747
293.712205
293.709424
293.706376
293.703038
293.699381
293.695382
293.691014
293.686254
293.681076
293.675459
293.66938
293.662818
293.655969
293.64939
293.642346
293.634826
293.626822
293.618327
293.609341
293.600276
293.590486
293.580375
293.569971
293.559307
293.548425
293.537377
293.526222
293.515034
293.503897
293.492908
293.482182
293.471853
293.462072
293.453
293.444817
293.437781
293.428575
293.432368
293.780282
293.779658
293.778445
293.776808
293.774899
293.772843
293.77073
293.768615
293.766527
293.764474
293.762456
293.76046
293.758471
293.756469
293.754434
293.752344
293.750175
293.747905
293.745509
293.742964
293.740247
293.737332
293.734197
293.730818
293.72717
293.72323
293.718976
293.714383
293.709429
293.704093
293.698353
293.69219
293.685583
293.678516
293.670971
293.662935
293.654789
293.646928
293.638613
293.629841
293.621018
293.611494
293.601665
293.591554
293.581189
293.570604
293.559841
293.548951
293.537994
293.527039
293.516168
293.505475
293.495067
293.485073
293.475633
293.466893
293.459022
293.452263
293.443319
293.4474
293.810514
293.809892
293.808667
293.806991
293.805
293.802815
293.800524
293.798183
293.795827
293.793467
293.791106
293.788737
293.786346
293.783917
293.781431
293.778869
293.77621
293.773433
293.770516
293.767438
293.764177
293.760711
293.757019
293.75308
293.748871
293.744373
293.739565
293.734425
293.728936
293.723077
293.716831
293.71018
293.70311
293.695605
293.687653
293.679243
293.670365
293.661014
293.651998
293.643043
293.634094
293.624474
293.614594
293.604474
293.594144
293.583637
293.572995
293.562267
293.551511
293.540793
293.530192
293.519795
293.509706
293.500047
293.490945
293.482533
293.47497
293.468481
293.459792
293.464175
293.841135
293.840519
293.839291
293.837587
293.835533
293.833239
293.830792
293.82825
293.825649
293.823006
293.820327
293.817608
293.814839
293.812008
293.809097
293.80609
293.802968
293.799712
293.796304
293.792723
293.78895
293.784965
293.78075
293.776285
293.771551
293.76653
293.761203
293.755553
293.749563
293.743217
293.736499
293.729395
293.721892
293.713977
293.705642
293.696877
293.687677
293.678036
293.667955
293.657914
293.64846
293.63883
293.628972
293.618912
293.608677
293.598302
293.587827
293.577302
293.566782
293.556332
293.546025
293.535945
293.526194
293.516881
293.508121
293.500041
293.492785
293.486531
293.478126
293.482829
293.872197
293.871592
293.870369
293.868652
293.866552
293.864172
293.861594
293.858877
293.856059
293.85316
293.850191
293.847151
293.844034
293.840829
293.837523
293.834102
293.830549
293.826849
293.822983
293.818934
293.814686
293.810221
293.805521
293.800571
293.795353
293.789852
293.784051
293.777936
293.771492
293.764705
293.757562
293.750052
293.742164
293.73389
293.72522
293.716151
293.706677
293.696797
293.68699
293.676457
293.66459
293.654983
293.645184
293.635215
293.625107
293.614893
293.604615
293.594318
293.584057
293.573894
293.563898
293.55415
293.544745
293.535786
293.527373
293.519624
293.512675
293.506643
293.498526
293.503569
293.908458
293.907856
293.906623
293.904873
293.902707
293.900218
293.897485
293.894566
293.891504
293.888322
293.880784
293.877456
293.874024
293.87048
293.866815
293.863017
293.859072
293.854965
293.850682
293.846208
293.841528
293.836626
293.831489
293.826101
293.820448
293.814517
293.808293
293.801765
293.79492
293.787747
293.780235
293.772376
293.764161
293.755583
293.746637
293.737321
293.727632
293.718048
293.70776
293.697231
293.686477
293.67318
293.663471
293.653627
293.643677
293.633654
293.623597
293.613553
293.603572
293.593714
293.584044
293.574641
293.565594
293.55699
293.548925
293.541509
293.534864
293.529048
293.521213
293.526619
293.941099
293.940518
293.939307
293.937572
293.9354
293.932875
293.930067
293.927036
293.923821
293.92045
293.916938
293.913293
293.909516
293.905602
293.901543
293.897332
293.892956
293.884197
293.879543
293.874691
293.869627
293.86434
293.858816
293.853043
293.84701
293.840704
293.834115
293.827231
293.820045
293.812545
293.804725
293.796578
293.788097
293.779279
293.77012
293.760619
293.75093
293.740697
293.730288
293.719722
293.709021
293.693901
293.684286
293.674541
293.664692
293.654805
293.644998
293.635231
293.625552
293.616017
293.606688