/*--------------------------------*- C++ -*----------------------------------*\
  =========                 |
  \\      /  F ield         | OpenFOAM: The Open Source CFD Toolbox
   \\    /   O peration     | Website:  https://openfoam.org
    \\  /    A nd           | Version:  11
     \\/     M anipulation  |
\*---------------------------------------------------------------------------*/
FoamFile
{
    format      ascii;
    class       volScalarField;
    location    "1.6331e-05";
    object      thermalPhaseChange:Tf.gas_liquid;
}
// * * * * * * * * * * * * * * * * * * * * * * * * * * * * * * * * * * * * * //

dimensions      [0 0 0 1 0 0 0];

internalField   nonuniform List<scalar> 
120000
(
293.047638
293.047647
293.047665
293.047693
293.04773
293.047777
293.047833
293.047899
293.047975
293.04806
293.048156
293.048262
293.048379
293.048506
293.048644
293.048794
293.048956
293.04913
293.049316
293.049516
293.04973
293.049958
293.050202
293.050462
293.050739
293.051033
293.051347
293.051681
293.052037
293.052416
293.052819
293.053249
293.053707
293.054195
293.054716
293.055272
293.055865
293.0565
293.057178
293.057904
293.058681
293.059514
293.060406
293.061363
293.06239
293.063491
293.064672
293.065937
293.06729
293.068731
293.070258
293.071862
293.073524
293.075207
293.07685
293.07835
293.079537
293.080137
293.079704
293.079932
293.049111
293.049135
293.049183
293.049256
293.049352
293.049473
293.049619
293.049789
293.049983
293.050203
293.050448
293.050718
293.051015
293.051338
293.051689
293.052068
293.052476
293.052915
293.053384
293.053886
293.054422
293.054993
293.055602
293.056249
293.056937
293.057667
293.058443
293.059266
293.060139
293.061065
293.062045
293.063083
293.064183
293.065345
293.066575
293.067873
293.069245
293.070691
293.072214
293.073816
293.075499
293.077262
293.079106
293.081027
293.083022
293.085083
293.087202
293.089363
293.091547
293.093726
293.095865
293.097918
293.09982
293.101491
293.102832
293.103718
293.10486
293.10447
293.102972
293.10376
293.051727
293.051762
293.051834
293.05194
293.052083
293.052261
293.052474
293.052724
293.053009
293.053331
293.053689
293.054085
293.054519
293.054991
293.055504
293.056058
293.056654
293.057294
293.05798
293.058713
293.059496
293.060329
293.061217
293.062161
293.063164
293.064228
293.065357
293.066553
293.067819
293.069159
293.070575
293.072072
293.073651
293.075316
293.07707
293.078915
293.080853
293.082886
293.085015
293.087239
293.089558
293.091968
293.094466
293.097043
293.099691
293.102397
293.105145
293.107914
293.110672
293.113383
293.116004
293.11848
293.120745
293.122719
293.125189
293.126371
293.126907
293.126666
293.125142
293.127734
293.05472
293.054763
293.054848
293.054976
293.055147
293.055362
293.05562
293.055922
293.056268
293.05666
293.057097
293.057582
293.058113
293.058694
293.059325
293.060007
293.060742
293.061532
293.06238
293.063286
293.064254
293.065286
293.066385
293.067552
293.068792
293.070108
293.071502
293.072977
293.074538
293.076187
293.077927
293.079762
293.081694
293.083727
293.085863
293.088103
293.09045
293.092903
293.095463
293.098128
293.100895
293.103759
293.106715
293.109755
293.112868
293.116035
293.119234
293.122441
293.129109
293.132342
293.135442
293.138346
293.140979
293.140453
293.142429
293.143863
293.144626
293.144601
293.143015
293.147592
293.057797
293.057839
293.057925
293.058054
293.05823
293.058453
293.058726
293.059049
293.059425
293.059853
293.060336
293.060874
293.061468
293.062121
293.062832
293.063604
293.064439
293.065337
293.066302
293.067336
293.06844
293.069618
293.070873
293.072206
293.073621
293.075122
293.076711
293.078391
293.080166
293.082039
293.084013
293.086091
293.088276
293.090569
293.092974
293.095491
293.098121
293.100864
293.103719
293.106683
293.109753
293.112927
293.116194
293.119544
293.126422
293.130067
293.133733
293.137389
293.140999
293.144518
293.147892
293.151059
293.154388
293.156924
293.158951
293.156836
293.157743
293.157857
293.156174
293.162414
293.060822
293.060853
293.060919
293.061025
293.061176
293.061379
293.061636
293.061952
293.062329
293.062768
293.06327
293.063836
293.064467
293.065165
293.065931
293.066765
293.067669
293.068645
293.069696
293.070822
293.072026
293.073311
293.07468
293.076134
293.077677
293.079313
293.081043
293.082871
293.084799
293.086832
293.088971
293.091219
293.093579
293.096052
293.09864
293.101344
293.104164
293.107099
293.110148
293.11331
293.11658
293.119951
293.126926
293.130663
293.134462
293.138301
293.142155
293.145992
293.149774
293.153458
293.156988
293.160728
293.163775
293.166411
293.16853
293.170006
293.170693
293.167211
293.165434
293.172731
293.063735
293.063742
293.063766
293.06382
293.063919
293.064075
293.064294
293.064583
293.064942
293.065374
293.065878
293.066456
293.067108
293.067834
293.068635
293.069512
293.070466
293.071498
293.07261
293.073803
293.07508
293.076443
293.077895
293.079437
293.081073
293.082805
293.084636
293.086568
293.088605
293.090749
293.093002
293.095367
293.097845
293.100438
293.103148
293.105973
293.108915
293.111972
293.115145
293.118429
293.125262
293.128951
293.132728
293.136578
293.140483
293.144422
293.148369
293.152291
293.15615
293.1599
293.163489
293.167293
293.170382
293.173053
293.175202
293.176703
293.177416
293.177235
293.171782
293.179804
293.066513
293.066482
293.06644
293.066419
293.066444
293.066536
293.066703
293.066952
293.067284
293.067699
293.068197
293.068778
293.069439
293.070182
293.071007
293.071913
293.072901
293.073973
293.075129
293.076371
293.077701
293.079121
293.080632
293.082238
293.083939
293.08574
293.087642
293.089648
293.091759
293.093979
293.09631
293.098753
293.101309
293.10398
293.106767
293.109669
293.112687
293.115821
293.119067
293.125906
293.129565
293.133319
293.137154
293.141057
293.145009
293.148987
293.152965
293.15691
293.160784
293.164542
293.168131
293.171939
293.175015
293.177671
293.179801
293.181287
293.18199
293.181812
293.176069
293.184554
293.069154
293.069071
293.068944
293.068829
293.068769
293.068788
293.068897
293.069102
293.069403
293.069797
293.070283
293.07086
293.071524
293.072277
293.073116
293.074041
293.075054
293.076154
293.077342
293.078619
293.079987
293.081447
293.083002
293.084652
293.086401
293.08825
293.090202
293.092258
293.094421
293.096692
293.099074
293.101567
293.104173
293.106893
293.109726
293.112675
293.115738
293.118913
293.125675
293.129267
293.132957
293.136735
293.140589
293.144505
293.148463
293.152442
293.156413
293.160345
293.164201
293.167936
293.171919
293.175272
293.178292
293.180892
293.182971
293.184411
293.18508
293.184885
293.178941
293.187707
293.071663
293.071518
293.071295
293.071078
293.070927
293.070871
293.070923
293.071083
293.071351
293.071722
293.072194
293.072763
293.073427
293.074183
293.075031
293.075969
293.076998
293.078117
293.079328
293.08063
293.082025
293.083515
293.0851
293.086783
293.088565
293.090448
293.092434
293.094524
293.096721
293.099026
293.101441
293.103966
293.106602
293.109349
293.11221
293.115183
293.118268
293.124901
293.1284
293.132
293.135693
293.139469
293.143315
293.147216
293.151153
293.155103
293.159039
293.162928
293.166736
293.170417
293.174346
293.177635
293.180588
293.183121
293.185136
293.186519
293.187142
293.186921
293.184458
293.189776
293.074056
293.073844
293.073519
293.0732
293.07296
293.072833
293.072828
293.072945
293.07318
293.073528
293.073984
293.074543
293.075202
293.075959
293.076811
293.077757
293.078796
293.079929
293.081155
293.082475
293.08389
293.0854
293.087008
293.088713
293.090518
293.092425
293.094434
293.096548
293.098767
293.101094
293.103529
293.106072
293.108725
293.111489
293.114364
293.117349
293.12044
293.127198
293.130696
293.134289
293.137969
293.141726
293.145546
293.149415
293.153313
293.157217
293.161099
293.16493
293.168673
293.172285
293.176145
293.179357
293.182232
293.184688
293.18663
293.187949
293.188521
293.188267
293.185783
293.19112
293.076354
293.076074
293.075651
293.075234
293.07491
293.074714
293.074656
293.074732
293.074935
293.075259
293.075698
293.076245
293.076898
293.077652
293.078504
293.079454
293.080501
293.081642
293.082879
293.084211
293.08564
293.087165
293.088787
293.090509
293.09233
293.094252
293.096277
293.098406
293.100639
293.102978
293.105423
293.107976
293.110636
293.113406
293.116284
293.119267
293.125845
293.129229
293.13271
293.136282
293.139936
293.143661
293.147444
293.151269
293.155116
293.158962
293.162781
293.166543
293.170211
293.173744
293.177527
293.180654
293.183443
293.185816
293.18768
293.18893
293.189446
293.189157
293.186656
293.191988
293.078581
293.078238
293.077724
293.077216
293.076814
293.076555
293.076446
293.076481
293.076653
293.076953
293.077374
293.077908
293.078552
293.079301
293.080152
293.081103
293.082152
293.083299
293.084543
293.085883
293.087321
293.088856
293.090489
293.092221
293.094053
293.095986
293.098021
293.100158
293.102399
293.104744
293.107194
293.109749
293.112412
293.11518
293.118052
293.124443
293.127709
293.131075
293.134533
293.138077
293.141697
293.145383
293.149121
293.152894
293.156683
293.160465
293.164215
293.167902
293.171491
293.174939
293.17864
293.181675
293.184374
293.186659
293.188441
293.189618
293.190076
293.18975
293.187235
293.19255
293.080765
293.080366
293.079769
293.079178
293.078705
293.078386
293.078228
293.078225
293.078366
293.078641
293.079043
293.079563
293.080196
293.080938
293.081785
293.082735
293.083785
293.084934
293.086181
293.087527
293.08897
293.090512
293.092152
293.093891
293.09573
293.097669
293.099709
293.101851
293.104095
293.106442
293.108893
293.111449
293.11411
293.116872
293.119735
293.126205
293.129455
293.132798
293.136228
293.139739
293.143322
293.146964
293.150652
293.15437
293.158098
293.161815
293.165494
293.169108
293.172619
293.176402
293.179604
293.182536
293.185135
293.187325
293.18902
293.190121
293.190518
293.190152
293.187625
293.192915
293.082932
293.082484
293.081815
293.081151
293.08061
293.080235
293.08003
293.079988
293.080098
293.080348
293.080729
293.081234
293.081855
293.082588
293.083429
293.084375
293.085423
293.086572
293.087821
293.089169
293.090615
293.09216
293.093804
293.095547
293.097389
293.099331
293.101373
293.103515
293.105759
293.108104
293.110553
293.113104
293.115755
293.118505
293.124783
293.127912
293.131136
293.13445
293.137847
293.141319
293.144857
293.14845
293.152083
293.15574
293.1594
293.163044
293.166647
293.170178
293.173602
293.1773
293.180407
293.183245
293.185749
293.187848
293.189459
293.190486
293.190825
293.190421
293.187885
293.193145
293.085108
293.08462
293.083887
293.083156
293.082553
293.082124
293.081873
293.081792
293.08187
293.082094
293.082454
293.082941
293.083548
293.084271
293.085104
293.086043
293.087088
293.088234
293.089482
293.09083
293.092277
293.093823
293.095467
293.097211
293.099054
293.100996
293.103037
293.105177
293.107418
293.109761
293.112204
293.114747
293.117387
293.120122
293.12647
293.129577
293.132774
293.136056
293.139416
293.142846
293.146337
293.149876
293.153449
293.15704
293.160629
293.164198
293.167719
293.171164
293.174499
293.178109
293.181121
293.183862
293.186272
293.188281
293.189808
293.190763
293.191044
293.190604
293.18806
293.193287
293.087317
293.086795
293.086007
293.085214
293.084553
293.08407
293.083774
293.083654
293.083699
293.083895
293.084232
293.0847
293.085292
293.086002
293.086825
293.087757
293.088795
293.089937
293.091181
293.092526
293.093971
293.095515
293.097159
293.098901
293.100741
293.10268
293.104717
293.106854
293.10909
293.111426
293.113858
293.116387
293.11901
293.125171
293.128159
293.131237
293.134402
293.137647
293.140965
293.144349
293.147788
293.15127
293.15478
293.158301
293.161818
293.165308
293.168746
293.172103
293.175346
293.178867
293.181782
293.184426
293.186742
293.18866
293.190104
293.190986
293.191212
293.190735
293.188185
293.193378
293.089578
293.089028
293.088192
293.087342
293.086625
293.08609
293.085748
293.085588
293.085598
293.085765
293.086077
293.086524
293.087099
293.087794
293.088605
293.089527
293.090557
293.091692
293.092931
293.094271
293.095712
293.097252
293.098891
293.100629
293.102465
293.104399
293.106431
293.108563
293.110792
293.113117
293.115537
293.118051
293.120657
293.126887
293.129849
293.132898
293.136028
293.139235
293.14251
293.145845
293.14923
293.152652
293.156096
293.159547
293.162989
293.1664
293.169753
293.173021
293.17617
293.179602
293.182419
293.184965
293.187185
293.189012
293.190373
293.191183
293.191352
293.19084
293.188286
293.193444
293.091909
293.091335
293.090457
293.089555
293.088782
293.088196
293.087806
293.087606
293.08758
293.087716
293.088001
293.088425
293.08898
293.089659
293.090455
293.091365
293.092384
293.093511
293.094741
293.096074
293.097508
293.099042
293.100675
293.102405
293.104235
293.106162
293.108187
293.110309
293.112526
293.114836
293.11724
293.119735
293.125788
293.128633
293.131565
293.13458
293.137673
293.140837
293.144065
293.147348
293.150676
293.154035
293.157413
293.160795
293.164163
293.167494
293.170765
293.173949
293.177425
293.180353
293.183063
293.185506
293.187625
293.189358
293.190633
293.19137
293.191483
293.190936
293.188377
293.193501
293.094324
293.093731
293.092814
293.091862
293.091036
293.090399
293.089961
293.089718
293.089654
293.089757
293.090013
293.090413
293.090946
293.091605
293.092385
293.09328
293.094287
293.095401
293.096621
293.097944
293.099369
293.100894
293.102517
293.10424
293.106062
293.10798
293.109993
293.112101
293.114303
293.116596
293.118979
293.124865
293.127593
293.130408
293.133306
293.136284
293.139335
293.142454
293.145631
293.148859
293.152125
293.155419
293.158727
293.162035
293.165323
293.16857
293.171753
293.174844
293.178231
293.181061
293.183671
293.186016
293.188039
293.189682
293.190875
293.191542
293.191601
293.19102
293.188459
293.193548
293.096835
293.096226
293.095275
293.094276
293.093398
293.092708
293.092222
293.091933
293.09183
293.091897
293.092123
293.092494
293.093003
293.093641
293.094402
293.09528
293.096271
293.097372
293.098579
293.09989
293.101303
293.102817
293.104432
293.106144
293.107954
293.109859
293.111858
293.113951
293.116135
293.118409
293.120772
293.12673
293.12943
293.132213
293.135076
293.138014
293.141021
293.144091
293.147215
293.150383
293.153585
293.156811
293.160047
293.163277
293.166482
293.169643
293.172735
293.175731
293.179027
293.181758
293.18427
293.186516
293.188445
293.189998
293.19111
293.191709
293.191715
293.191102
293.18854
293.193596
293.099453
293.09883
293.097848
293.096805
293.095875
293.095132
293.094596
293.094261
293.094116
293.094145
293.094337
293.094679
293.095161
293.095775
293.096514
293.097372
293.098345
293.099429
293.10062
293.101917
293.103318
293.104819
293.106419
293.108117
293.109911
293.1118
293.113781
293.115854
293.118017
293.120268
293.126069
293.128652
293.131318
293.134065
293.136888
293.139782
293.142742
293.145758
293.148824
293.15193
293.155067
293.158222
293.161383
293.164534
293.167655
293.170728
293.173727
293.176628
293.179832
293.182463
293.184874
293.187022
293.188855
293.19032
293.191351
293.191881
293.191837
293.191193
293.188629
293.193653
293.102186
293.101552
293.100543
293.099456
293.098475
293.097679
293.097091
293.096708
293.096519
293.096508
293.096664
293.096973
293.097425
293.098012
293.098726
293.099562
293.100515
293.10158
293.102755
293.104035
293.105419
293.106903
293.108486
293.110166
293.111941
293.113809
293.11577
293.11782
293.119958
293.125612
293.128077
293.130627
293.133257
293.135964
293.138744
293.141592
293.144499
293.147459
293.150465
293.153507
293.156577
293.159661
293.162746
293.165817
293.168855
293.171841
293.174752
293.177974
293.180676
293.183199
293.185504
293.187548
293.189284
293.190657
293.191607
293.192068
293.191972
293.191298
293.188734
293.193725
293.105044
293.1044
293.103366
293.102239
293.101207
293.100358
293.099717
293.099284
293.099047
293.098994
293.099111
293.099384
293.099804
293.100362
293.10105
293.101862
293.102791
293.103835
293.104988
293.106247
293.10761
293.109074
293.110636
293.112295
293.114048
293.115893
293.117829
293.119854
293.125368
293.127715
293.130146
293.132658
293.135248
293.137913
293.140645
293.143441
293.146292
293.149192
293.152135
293.155111
293.158109
293.161117
293.164122
293.167108
293.170058
293.172952
293.175767
293.178897
293.181498
293.183919
293.186123
293.188069
293.18971
293.190995
293.191866
293.192261
293.192116
293.191413
293.188851
293.193811
293.108032
293.107381
293.106324
293.105159
293.104078
293.103175
293.102479
293.101994
293.101709
293.101611
293.101687
293.101922
293.102308
293.102834
293.103492
293.104275
293.105178
293.106196
293.107324
293.10856
293.109899
293.111339
293.112877
293.114511
293.116238
293.118057
293.119965
293.125348
293.127574
293.129885
293.132279
293.13475
293.137297
293.139914
293.142595
293.145334
293.148126
293.150964
293.15384
293.156745
293.159668
293.162597
293.165519
293.168417
293.171276
293.174074
293.176791
293.179828
293.182328
293.184647
293.18675
293.188597
293.190145
293.191343
293.192137
293.192467
293.192274
293.191544
293.188984
293.193915
293.111156
293.110501
293.109425
293.108224
293.107096
293.106139
293.105389
293.10485
293.104514
293.104369
293.1044
293.104595
293.104942
293.105432
293.106057
293.106808
293.107681
293.10867
293.109771
293.110979
293.11229
293.113703
293.115214
293.116819
293.118518
293.120307
293.125565
293.127669
293.129859
293.132131
293.134483
293.13691
293.139408
293.141972
293.144597
293.147278
293.150008
293.152781
293.155588
293.15842
293.161265
293.164112
293.166948
293.169757
293.172522
293.175224
293.177842
293.180784
293.183181
293.185397
293.187398
293.189147
293.1906
293.191712
293.192429
293.192696
293.192456
293.191699
293.189136
293.194045
293.114423
293.113765
293.112674
293.11144
293.110266
293.109256
293.10845
293.107857
293.107468
293.107272
293.107256
293.107407
293.107713
293.108164
293.108752
293.109469
293.110308
293.111265
293.112334
293.113511
293.114792
293.116173
293.117653
293.119227
293.120893
293.126034
293.128013
293.130078
293.132227
293.134457
293.136762
293.13914
293.141585
293.144093
293.146661
293.149281
293.151947
293.154652
293.157387
293.160143
293.162908
293.165673
293.168422
293.171142
293.173815
293.176423
293.17936
293.181795
293.184081
293.186188
293.188084
293.189731
293.191089
293.192112
293.192752
293.192956
293.19267
293.191886
293.189307
293.194209
293.117837
293.117179
293.116076
293.114813
293.113596
293.112533
293.111671
293.111021
293.110577
293.110329
293.110263
293.110367
293.110628
293.111037
293.111585
293.112263
293.113066
293.113987
293.11502
293.116162
293.117409
293.118756
293.1202
293.121739
293.12677
293.12862
293.130558
293.132581
293.134685
293.136866
293.13912
293.141443
293.143833
293.146283
293.148788
293.151343
293.153941
293.156573
293.159232
293.161907
293.164589
293.167266
293.169924
293.172549
293.175124
293.177632
293.180474
293.182804
293.184985
293.186988
293.188782
293.19033
293.191595
293.192534
293.193099
293.193242
293.192912
293.192102
293.189508
293.194404
293.121402
293.120746
293.119635
293.118347
293.117089
293.115975
293.115057
293.11435
293.113849
293.113546
293.113427
293.113481
293.113695
293.114058
293.114562
293.115199
293.115961
293.116842
293.117837
293.11894
293.120149
293.121458
293.122864
293.127791
293.129508
293.131315
293.133208
293.135182
293.137235
293.139363
293.141562
293.143829
293.146159
293.148547
293.150987
293.153472
293.155997
293.158553
293.161132
293.163724
293.166319
293.168904
293.171468
293.173996
293.176471
293.178875
293.181621
293.183846
293.185921
293.187819
293.18951
293.19096
293.192132
293.192986
293.193478
293.193561
293.193189
293.192355
293.189746
293.194639
293.125122
293.124471
293.123355
293.122047
293.120751
293.119589
293.118615
293.117849
293.11729
293.11693
293.116756
293.116756
293.116918
293.117233
293.117689
293.118279
293.118996
293.119834
293.120785
293.121846
293.123011
293.127644
293.129127
293.130705
293.132373
293.134129
293.135969
293.13789
293.139888
293.14196
293.144101
293.146307
293.148573
293.150894
293.153264
293.155677
293.158126
293.160602
293.163098
293.165604
293.16811
293.170604
293.173073
293.175504
293.17788
293.1806
293.182836
293.184948
293.186911
293.1887
293.190286
293.191636
293.192714
293.193483
293.193901
293.193925
293.193511
293.192654
293.190029
293.194922
293.129001
293.128357
293.127242
293.125917
293.124589
293.12338
293.122352
293.121527
293.120909
293.120489
293.120257
293.120201
293.120309
293.120571
293.120976
293.121516
293.122184
293.122973
293.123878
293.128224
293.129456
293.130789
293.13222
293.133745
293.13536
293.137062
293.138847
293.140711
293.142651
293.144662
293.14674
293.14888
293.151078
293.153328
293.155623
293.157958
293.160326
293.162718
293.165126
293.167542
293.169953
293.17235
293.17472
293.177048
293.179319
293.181941
293.184069
293.186072
293.187928
293.189611
293.191094
293.192346
293.193333
293.194019
293.194364
293.194333
293.193878
293.192999
293.19036
293.195254
293.133038
293.132405
293.131295
293.129961
293.128605
293.127354
293.126273
293.125392
293.124713
293.124233
293.123941
293.123826
293.123877
293.124082
293.124433
293.12492
293.125535
293.129594
293.130554
293.131625
293.132801
293.134079
293.135455
293.136924
293.138483
293.140127
293.141852
293.143655
293.145532
293.147477
293.149488
293.151558
293.153682
293.155856
293.158073
293.160326
293.162608
293.164913
293.16723
293.16955
293.171865
293.174161
293.176428
293.17865
293.180815
293.183337
293.185355
293.187248
293.188996
293.190573
293.191953
293.193107
293.194003
293.194607
293.194882
293.194795
293.194301
293.193401
293.190747
293.195647
293.137226
293.136607
293.13551
293.134175
293.132798
293.13151
293.130382
293.129445
293.128708
293.128167
293.127814
293.12764
293.127631
293.127778
293.12807
293.131836
293.132498
293.133282
293.134183
293.135194
293.136312
293.137532
293.138848
293.140256
293.141753
293.143335
293.144996
293.146733
293.148542
293.150417
293.152355
293.15435
293.156398
293.158491
293.160625
293.162793
293.164987
293.1672
293.169423
293.171648
293.173863
293.176059
293.178222
293.180341
293.18282
293.184825
293.186726
293.188504
293.190139
293.191607
293.192882
293.193937
293.194742
293.195263
293.195468
293.195326
293.194793
293.193872
293.191204
293.196114
293.141565
293.140963
293.139883
293.138551
293.13716
293.13584
293.134669
293.133681
293.132886
293.132285
293.131868
293.134876
293.134899
293.135077
293.135401
293.135863
293.136457
293.137174
293.138009
293.138955
293.140008
293.141162
293.142413
293.143755
293.145185
293.146698
293.148289
293.149955
293.15169
293.15349
293.155351
293.157266
293.159231
293.16124
293.163286
293.165364
293.167465
293.169582
293.171706
293.17383
293.175941
293.178031
293.180086
293.182094
293.184471
293.186363
293.188151
293.189818
293.191342
293.192703
293.193875
293.194833
293.195548
293.195989
293.196127
293.195931
293.19536
293.194419
293.191736
293.196659
293.1461
293.145515
293.144452
293.143125
293.141718
293.143484
293.142358
293.141401
293.14063
293.140046
293.139646
293.139422
293.139365
293.139465
293.139714
293.140103
293.140623
293.141269
293.142033
293.14291
293.143892
293.144976
293.146156
293.147428
293.148785
293.150225
293.151741
293.15333
293.154988
293.156708
293.158486
293.160317
293.162195
293.164114
293.166069
293.168052
293.170056
293.172075
293.174098
293.176118
293.178124
293.180106
293.182054
293.184371
293.18623
293.188002
293.189673
293.191223
293.192635
293.193886
293.194954
293.195814
293.196438
293.1968
293.196871
293.196624
293.196015
293.195055
293.192356
293.197298
293.154188
293.153644
293.152644
293.151384
293.150034
293.148724
293.147529
293.146496
293.145643
293.144977
293.144494
293.144189
293.144051
293.144072
293.144243
293.144556
293.145001
293.145572
293.146262
293.147065
293.147973
293.148983
293.150087
293.151283
293.152563
293.153924
293.155361
293.156869
293.158443
293.160078
293.161768
293.16351
293.165296
293.167121
293.168979
293.170863
293.172766
293.17468
293.176597
293.178509
293.180404
293.182274
293.184108
293.18632
293.188062
293.189719
293.191274
293.192711
293.194011
293.195154
293.196119
293.196883
293.197419
293.197702
293.19771
293.197412
293.196767
293.19579
293.193075
293.19804
293.159661
293.159124
293.158127
293.156856
293.155479
293.154125
293.152875
293.151777
293.150855
293.150114
293.149556
293.149173
293.148958
293.148901
293.148995
293.14923
293.149599
293.150093
293.150706
293.151431
293.152262
293.153193
293.154218
293.155333
293.156532
293.15781
293.159163
293.160584
293.16207
293.163615
293.165214
293.166862
293.168552
293.170279
293.172036
293.173817
293.175615
293.177423
293.179231
293.181032
293.182816
293.184574
293.186713
293.188403
293.190023
293.191558
293.192994
293.194313
293.1955
293.196534
293.197396
293.198062
293.19851
293.198716
293.198659
293.198312
293.197632
293.196638
293.193906
293.202342
293.16524
293.164719
293.163742
293.162482
293.1611
293.159722
293.158433
293.157283
293.156299
293.155491
293.154861
293.154403
293.154111
293.153976
293.153991
293.154147
293.154436
293.15485
293.155383
293.156026
293.156775
293.157623
293.158565
293.159595
293.160708
293.161898
293.163161
293.164492
293.165885
293.167335
293.168837
293.170385
293.171974
293.173598
293.17525
293.176924
293.178612
293.180308
293.182002
293.183688
293.185355
293.186994
293.189026
293.190596
293.192095
293.193511
293.194829
293.196034
293.197108
293.198035
293.198794
293.199366
293.199727
293.199858
293.199741
293.199345
293.198631
293.197621
293.194871
293.203393
293.171007
293.170507
293.169557
293.16832
293.166946
293.165557
293.164239
293.163045
293.162006
293.161134
293.160434
293.159902
293.159533
293.159319
293.159254
293.159328
293.159534
293.159865
293.160312
293.160871
293.161533
293.162294
293.163148
293.164088
293.165109
293.166207
293.167376
293.168611
293.169906
293.171257
293.172658
293.174103
293.175587
293.177104
293.178647
293.18021
293.181786
293.183368
293.184947
293.186516
293.188066
293.190012
293.191513
293.192957
293.194332
293.195624
293.196822
293.197908
293.198869
293.199687
293.200343
293.20082
293.201096
293.201154
293.200976
293.200531
293.199785
293.19876
293.19599
293.204612
293.176992
293.176517
293.175602
293.174396
293.173039
293.17165
293.170312
293.169083
293.167994
293.167063
293.166295
293.16569
293.165244
293.16495
293.164802
293.164792
293.164912
293.165156
293.165515
293.165984
293.166556
293.167225
293.167985
293.168831
293.169756
293.170757
293.171827
293.172961
293.174154
293.175401
293.176695
293.178033
293.179407
293.180813
293.182243
293.183691
293.185151
293.186615
293.188076
293.189526
293.191375
293.192795
293.194168
293.195485
293.196734
293.197903
293.198979
293.199948
293.200795
293.201504
293.202059
293.202441
293.202632
293.20262
293.202383
293.201891
293.201112
293.200074
293.197282
293.206022
293.183213
293.182765
293.181889
293.180723
293.179394
293.178013
293.176666
293.175409
293.174277
293.173291
293.172459
293.171783
293.171261
293.170887
293.170655
293.170558
293.17059
293.170743
293.171011
293.171386
293.171863
293.172436
293.173098
293.173845
293.17467
293.175568
293.176533
293.177562
293.178647
293.179784
293.180968
293.182192
293.183452
293.184741
293.186052
293.187381
293.188719
293.190061
293.191397
293.192722
293.194459
293.195752
293.196999
293.19819
293.199315
293.200361
293.201317
293.202169
293.202904
293.203507
293.203962
293.204251
293.204361
293.204279
293.203985
293.203446
293.202638
293.201587
293.198771
293.207649
293.189682
293.189264
293.188432
293.187312
293.186019
293.184659
293.183312
293.182036
293.18087
293.179835
293.178944
293.1782
293.177603
293.177149
293.176832
293.176648
293.17659
293.17665
293.176823
293.177102
293.17748
293.177953
293.178513
293.179156
293.179876
293.180667
293.181524
293.182442
293.183416
293.18444
293.185508
293.186616
293.187758
293.188926
293.190117
293.191323
293.192538
293.193755
293.194967
293.196597
293.197794
293.198955
293.200071
293.201132
293.202129
293.20305
293.203884
293.204619
293.205241
293.205736
293.206091
293.206289
293.20632
293.206171
293.205818
293.205234
293.204396
293.203299
293.20049
293.209529
293.196412
293.196025
293.19524
293.194173
293.192927
293.191597
293.190261
293.188977
293.187785
293.18671
293.185765
293.184958
293.184289
293.183756
293.183357
293.183085
293.182935
293.1829
293.182976
293.183155
293.183432
293.183801
293.184256
293.184792
293.185403
293.186083
293.186828
293.187632
293.18849
293.189396
293.190345
293.191333
293.192352
293.193398
293.194464
293.195545
293.196633
293.197723
293.199238
293.200327
293.20139
293.202417
293.203401
293.204332
293.2052
293.205996
293.206708
293.207325
293.207834
293.208223
293.208478
293.208586
293.20854
293.208325
293.207915
293.207286
293.206421
293.205267
293.202474
293.211698
293.203413
293.203059
293.202326
293.201318
293.200126
293.198837
293.197524
293.196243
293.195037
293.19393
293.192939
293.192074
293.191338
293.190731
293.190249
293.18989
293.189649
293.18952
293.189497
293.189575
293.189748
293.19001
293.190356
293.190781
293.19128
293.191846
293.192474
293.19316
293.193898
293.194683
293.19551
293.196373
293.197267
293.198186
293.199125
293.200077
293.201036
293.202428
293.2034
293.204353
293.205279
293.206172
293.207023
293.207823
293.208563
293.209233
293.209823
293.210323
293.21072
293.211004
293.211162
293.211184
293.211063
293.210781
293.210314
293.209643
293.208751
293.207539
293.20476
293.214197
293.210698
293.210379
293.2097
293.208756
293.207627
293.20639
293.205112
293.203848
293.202638
293.20151
293.200484
293.199569
293.198772
293.198094
293.197535
293.197092
293.19676
293.196536
293.196414
293.19639
293.196457
293.196611
293.196847
293.197159
293.197541
293.19799
293.198499
293.199064
293.199679
293.20034
293.201041
293.201776
293.202541
293.203331
293.204139
293.20496
293.206265
293.207134
293.207985
293.208811
293.209604
293.210358
293.211062
293.211709
293.21229
293.212805
293.213274
293.213657
293.213944