/*--------------------------------*- C++ -*----------------------------------*\
  =========                 |
  \\      /  F ield         | OpenFOAM: The Open Source CFD Toolbox
   \\    /   O peration     | Website:  https://openfoam.org
    \\  /    A nd           | Version:  11
     \\/     M anipulation  |
\*---------------------------------------------------------------------------*/
FoamFile
{
    format      ascii;
    class       volScalarField;
    location    "1.6331e-05";
    object      thermalPhaseChange:Tsat.gas_liquid;
}
// * * * * * * * * * * * * * * * * * * * * * * * * * * * * * * * * * * * * * //

dimensions      [0 0 0 1 0 0 0];

internalField   nonuniform List<scalar> 
120000
(
295.831764
295.831803
295.83188
295.831996
295.832152
295.832348
295.832586
295.832867
295.833192
295.833563
295.833981
295.83445
295.834971
295.835547
295.836181
295.836876
295.837635
295.838461
295.83936
295.840334
295.841389
295.842528
295.843758
295.845083
295.846509
295.848042
295.849687
295.851453
295.853344
295.855368
295.857533
295.859846
295.862314
295.864945
295.867746
295.870727
295.873893
295.877253
295.880814
295.884581
295.888561
295.892758
295.897173
295.901806
295.906653
295.911706
295.916948
295.922356
295.92789
295.933499
295.939108
295.944614
295.94988
295.954728
295.95893
295.962214
295.964272
295.9648
295.962694
295.964458
295.840417
295.840503
295.840676
295.840936
295.841284
295.841723
295.842253
295.842877
295.843598
295.844418
295.845341
295.84637
295.84751
295.848764
295.850137
295.851634
295.85326
295.85502
295.856921
295.858967
295.861165
295.863521
295.866041
295.868731
295.871597
295.874645
295.87788
295.881307
295.884931
295.888754
295.89278
295.897009
295.901442
295.906077
295.910909
295.915931
295.921134
295.926505
295.932026
295.937675
295.943425
295.949243
295.955088
295.960913
295.966662
295.972268
295.977658
295.982746
295.987436
295.991626
295.995203
295.998054
296.000063
296.00113
296.001172
296.000149
295.998075
295.995301
295.989867
295.991381
295.849707
295.849838
295.850102
295.850498
295.85103
295.851697
295.852504
295.853452
295.854546
295.855789
295.857185
295.85874
295.860457
295.862343
295.864403
295.866644
295.869071
295.871691
295.874511
295.877538
295.880777
295.884236
295.887921
295.891837
295.895991
295.900386
295.905027
295.909916
295.915054
295.920441
295.926074
295.931949
295.938058
295.944391
295.950933
295.957666
295.964566
295.971607
295.978753
295.985965
295.993195
296.000389
296.007485
296.014411
296.021089
296.027432
296.033346
296.03873
296.043476
296.047476
296.050623
296.052822
296.053992
296.054077
296.053055
296.051189
296.048617
296.04554
296.040088
296.041868
295.859566
295.859739
295.860086
295.860607
295.861305
295.862182
295.863241
295.864485
295.865918
295.867544
295.869369
295.871398
295.873637
295.876091
295.878767
295.881672
295.884813
295.888196
295.891829
295.895718
295.899871
295.904293
295.908991
295.913969
295.919232
295.924784
295.930625
295.936757
295.943177
295.949883
295.956866
295.964119
295.971627
295.979375
295.987342
295.995501
296.003821
296.012266
296.020792
296.02935
296.037883
296.046327
296.05461
296.062652
296.070367
296.077662
296.08444
296.090606
296.096068
296.100602
296.104117
296.10653
296.107771
296.107831
296.106997
296.105377
296.103111
296.100423
296.095489
296.097771
295.869622
295.869831
295.870252
295.870883
295.871729
295.872791
295.874072
295.875575
295.877306
295.879269
295.88147
295.883912
295.886604
295.889551
295.89276
295.896237
295.89999
295.904026
295.908351
295.912973
295.917897
295.92313
295.928676
295.93454
295.940724
295.947231
295.954061
295.961212
295.96868
295.976457
295.984536
295.992903
296.001542
296.010432
296.019548
296.028859
296.038332
296.047924
296.057589
296.067273
296.076917
296.086453
296.095811
296.104909
296.113671
296.121882
296.129449
296.136274
296.142255
296.147288
296.151277
296.15414
296.155809
296.156487
296.1562
296.155025
296.153233
296.151044
296.146657
296.149385
295.879561
295.879802
295.880285
295.881012
295.881984
295.883204
295.884676
295.886402
295.888387
295.890636
295.893155
295.895948
295.899022
295.902384
295.906039
295.909995
295.914258
295.918835
295.923732
295.928956
295.934512
295.940405
295.946639
295.953218
295.960142
295.967414
295.97503
295.982988
295.991281
295.999902
296.008837
296.018073
296.02759
296.037365
296.047371
296.057574
296.067939
296.07842
296.088969
296.099532
296.110046
296.120444
296.130657
296.140482
296.149832
296.158612
296.16672
296.174055
296.180514
296.185996
296.190409
296.19367
296.195939
296.197211
296.197518
296.196945
296.195641
296.193833
296.189949
296.192991
295.889182
295.88945
295.889987
295.890793
295.891871
295.893224
295.894854
295.896766
295.898963
295.90145
295.904232
295.907315
295.910705
295.914407
295.918427
295.922773
295.927449
295.932463
295.93782
295.943525
295.949584
295.955999
295.962776
295.969914
295.977415
295.985278
295.9935
296.002075
296.010996
296.020254
296.029833
296.039718
296.049888
296.060319
296.07098
296.08184
296.092858
296.103993
296.115193
296.126407
296.137573
296.148504
296.159125
296.169349
296.179084
296.188234
296.1967
296.204381
296.211179
296.216998
296.22175
296.225357
296.227987
296.229634
296.230328
296.230151
296.229249
296.227843
296.224386
296.227632
295.898398
295.898687
295.899268
295.90014
295.901305
295.902767
295.904528
295.906591
295.908961
295.911642
295.914638
295.917956
295.921599
295.925575
295.929887
295.934543
295.939548
295.944906
295.950624
295.956705
295.963153
295.969972
295.977163
295.984726
295.992662
296.000968
296.009638
296.018668
296.028047
296.037765
296.047805
296.058149
296.068776
296.079659
296.090769
296.102069
296.113522
296.125081
296.136697
296.148316
296.159755
296.170944
296.181802
296.192245
296.202183
296.211523
296.220169
296.228023
296.234991
296.240984
296.245915
296.249714
296.252551
296.254418
296.255346
296.255414
296.254763
296.253607
296.250467
296.25385
295.907203
295.90751
295.908126
295.909051
295.910288
295.911838
295.913704
295.91589
295.918399
295.921235
295.924403
295.927907
295.931753
295.935944
295.940487
295.945385
295.950645
295.95627
295.962265
295.968632
295.975375
295.982496
295.989995
295.997872
296.006125
296.01475
296.023741
296.033091
296.042788
296.05282
296.063171
296.07382
296.084744
296.095917
296.107307
296.118879
296.130591
296.1424
296.154254
296.165982
296.177516
296.188784
296.199706
296.210197
296.22017
296.22953
296.238184
296.246037
296.252994
296.258965
296.263863
296.267818
296.270806
296.272826
296.273915
296.274153
296.27368
296.272705
296.269789
296.273251
295.915651
295.915973
295.916617
295.917585
295.918879
295.9205
295.92245
295.924734
295.927354
295.930314
295.933617
295.937268
295.941272
295.945631
295.950352
295.955438
295.960892
295.96672
295.972922
295.979503
295.986464
295.993806
296.001527
296.009627
296.018102
296.026947
296.036155
296.045716
296.05562
296.065852
296.076393
296.087224
296.09832
296.109654
296.121194
296.132905
296.144747
296.156676
296.168528
296.18024
296.191746
296.202972
296.21384
296.224267
296.234166
296.243447
296.252019
296.259794
296.266681
296.272594
296.277453
296.281397
296.284399
296.286462
296.287622
296.287964
296.287627
296.286814
296.284118
296.287588
295.923828
295.924162
295.924829
295.925831
295.92717
295.928848
295.930866
295.933227
295.935934
295.938991
295.942401
295.946167
295.950293
295.954783
295.959639
295.964867
295.970468
295.976446
295.982802
295.989539
295.996655
296.004152
296.012028
296.020279
296.028901
296.037888
296.047231
296.056919
296.066941
296.077279
296.087915
296.098827
296.10999
296.121374
296.132945
296.144668
296.156498
296.168391
296.180182
296.191811
296.203214
296.21432
296.225054
296.235336
296.245082
296.254207
296.262624
296.270249
296.276994
296.282779
296.28753
296.291387
296.294327
296.296355
296.297512
296.297878
296.297592
296.29685
296.294263
296.297733
295.931835
295.932178
295.932864
295.933894
295.935269
295.936991
295.939062
295.941485
295.944261
295.947394
295.950886
295.954741
295.958961
295.96355
295.96851
295.973843
295.979553
295.985641
295.992107
295.998953
296.006178
296.01378
296.021757
296.030105
296.038817
296.047887
296.057305
296.067059
296.077136
296.087518
296.098186
296.109118
296.120286
296.131663
296.143214
296.154902
296.166687
296.178417
296.190035
296.201482
296.212692
296.223595
296.234118
296.244183
296.253708
296.262612
296.270814
296.278229
296.284777
296.290382
296.294974
296.298695
296.301527
296.303476
296.304586
296.304937
296.304664
296.303959
296.301446
296.304895
295.939775
295.940125
295.940825
295.941877
295.943281
295.945039
295.947152
295.949623
295.952453
295.955645
295.959201
295.963124
295.967415
295.972078
295.977114
295.982525
295.988313
295.994478
296.00102
296.00794
296.015235
296.022902
296.030939
296.03934
296.048099
296.057206
296.066651
296.076422
296.086504
296.096879
296.107528
296.118427
296.12955
296.140868
296.152349
296.163957
296.175548
296.187071
296.19847
296.209687
296.220655
296.231307
296.24157
296.251369
296.260627
296.269266
296.277206
296.28437
296.290681
296.296069
296.300472
296.304031
296.306731
296.308582
296.309625
296.309942
296.309666
296.308981
296.306525
296.309938
295.947744
295.9481
295.948812
295.949881
295.951308
295.953094
295.95524
295.957748
295.96062
295.963857
295.967461
295.971435
295.97578
295.980497
295.985588
295.991053
295.996894
296.00311
296.009701
296.016665
296.023999
296.0317
296.039763
296.048182
296.056949
296.066055
296.075487
296.085233
296.095275
296.105596
296.116175
296.126986
296.138003
296.149195
296.160528
296.171963
296.183357
296.194663
296.205825
296.216787
296.227486
296.237855
296.247825
296.257322
296.266272
296.2746
296.282228
296.289079
296.295079
296.300158
296.304428
296.307863
296.310455
296.31222
296.313203
296.313489
296.313207
296.31254
296.310131
296.313503
295.955833
295.956193
295.956914
295.957997
295.959441
295.961248
295.963419
295.965956
295.968859
295.97213
295.975771
295.979781
295.984164
295.988919
295.994046
295.999548
296.005422
296.011668
296.018284
296.025269
296.032618
296.040327
296.04839
296.0568
296.065548
296.074624
296.084015
296.093707
296.103684
296.113925
296.124411
296.135116
296.146013
296.157074
296.168265
296.179452
296.19059
296.201629
296.212515
296.223189
296.23359
296.243655
296.253313
296.262496
296.271133
296.279153
296.28648
296.293043
296.298773
296.303607
296.307661
296.310909
296.313346
296.314989
296.315886
296.316118
296.315814
296.315149
296.312778
296.316101
295.964118
295.964482
295.96521
295.966302
295.96776
295.969583
295.971773
295.97433
295.977256
295.980551
295.984217
295.988252
295.99266
295.997438
296.002588
296.008109
296.013999
296.020257
296.02688
296.033865
296.041208
296.048902
296.056943
296.06532
296.074024
296.083045
296.092368
296.101978
296.111857
296.121986
296.132342
296.1429
296.153631
296.164504
296.175485
296.186441
296.197329
296.2081
296.218702
296.229081
296.239176
296.248926
296.258265
296.267128
296.275448
296.283154
296.290177
296.29645
296.301907
296.306491
296.310321
296.313373
296.315645
296.317158
296.317958
296.318129
296.317796
296.317128
296.314788
296.318058
295.972667
295.973034
295.973767
295.974866
295.976333
295.978168
295.980371
295.982942
295.985883
295.989194
295.992874
295.996925
296.001345
296.006135
296.011294
296.01682
296.022711
296.028965
296.035579
296.042548
296.049867
296.05753
296.065528
296.073854
296.082497
296.091443
296.10068
296.110192
296.11996
296.129964
296.140182
296.150589
296.161158
296.171859
296.182568
296.193244
296.203842
296.214314
296.224607
296.234668
296.244439
296.253858
296.262865
296.271397
296.279389
296.286774
296.293487
296.299463
296.304644
296.308976
296.312578
296.315432
296.317538
296.318918
296.319621
296.319729
296.319364
296.31869
296.316379
296.319594
295.98154
295.981907
295.982643
295.983748
295.98522
295.987062
295.989272
295.991852
295.9948
295.998118
296.001805
296.005861
296.010284
296.015074
296.02023
296.025748
296.031627
296.037863
296.044453
296.05139
296.058669
296.066282
296.074222
296.082478
296.091038
296.09989
296.109019
296.118408
296.128038
296.137887
296.147934
296.15815
296.168508
296.178977
296.189434
296.199839
296.210149
296.220318
296.230297
296.240032
296.249469
296.258548
296.267215
296.275407
296.283062
296.290118
296.296512
296.302187
296.307088
296.311167
296.314545
296.317204
296.319148
296.3204
296.321009
296.321057
296.320662
296.319984
296.317701
296.320858
295.990784
295.991153
295.99189
295.992996
295.994471
295.996315
295.998528
296.00111
296.00406
296.007378
296.011063
296.015114
296.019531
296.024311
296.029452
296.034951
296.040805
296.047011
296.053562
296.060454
296.067679
296.07523
296.083096
296.091269
296.099734
296.10848
296.11749
296.126748
296.136233
296.145926
296.155802
296.165835
296.175999
296.186178
296.196335
296.20643
296.21642
296.22626
296.235899
296.245287
296.25437
296.263093
296.271399
296.279228
296.286521
296.293217
296.299256
296.304582
296.309141
296.313031
296.316231
296.318733
296.320542
296.321686
296.322218
296.322216
296.321799
296.32112
296.318866
296.321968
296.000444
296.000812
296.00155
296.002655
296.004129
296.005972
296.008182
296.01076
296.013704
296.017015
296.02069
296.024729
296.029129
296.033888
296.039003
296.044472
296.050289
296.056451
296.062951
296.069784
296.076941
296.084413
296.092192
296.100266
296.108622
296.117246
296.126122
296.135234
296.144561
296.154084
296.163778
296.17362
296.1835
296.193385
296.203237
296.213016
296.22268
296.232184
296.24148
296.250519
296.259248
296.267616
296.275568
296.283046
296.289994
296.296354
296.302073
296.307097
296.311379
296.315021
296.318001
296.320312
296.321964
296.322984
296.323424
296.323365
296.322918
296.322234
296.320006
296.323049
296.010557
296.010925
296.01166
296.012762
296.014232
296.016069
296.018272
296.02084
296.023772
296.027068
296.030725
296.034742
296.039115
296.043843
296.048922
296.054348
296.060116
296.066221
296.072655
296.079413
296.086486
296.093865
296.101538
296.109493
296.117719
296.126198
296.134916
296.143854
296.152991
296.162306
296.171774
296.181369
296.190984
296.200587
296.21014
296.219608
296.228948
296.238116
296.247069
296.255758
296.264135
296.27215
296.279749
296.286878
296.293485
296.299515
296.304918
296.309647
296.313656
296.317048
296.319807
296.321928
296.32342
296.324315
296.324664
296.324545
296.324068
296.323377
296.321174
296.324158
296.021157
296.021523
296.022255
296.023352
296.024814
296.026641
296.028831
296.031384
296.034298
296.037572
296.041203
296.045189
296.049527
296.054214
296.059246
296.064618
296.070325
296.076361
296.082719
296.089391
296.096368
296.10364
296.111196
296.119024
296.12711
296.135438
296.143992
296.152753
296.161701
296.170815
296.180072
296.189369
296.198677
296.207962
296.217189
296.22632
296.235316
296.244133
296.252728
296.261057
296.269073
296.276725
296.283963
296.290737
296.296997
296.302694
296.30778
296.312212
296.315951
296.319099
296.321642
296.323578
296.324917
296.325692
296.325953
296.325779
296.325273
296.324576
296.322398
296.325324
296.032276
296.032639
296.033366
296.034455
296.035906
296.037719
296.039891
296.042423
296.045312
296.048557
296.052154
296.056101
296.060394
296.065031
296.070005
296.075313
296.080948
296.086903
296.093172
296.099745
296.106614
296.113768
296.121195
296.128882
296.136816
296.14498
296.153359
296.161932
296.170681
296.179583
296.188543
296.197533
296.206523
296.21548
296.224368
296.23315
296.241788
296.250242
296.258469
296.266425
296.274064
296.281338
296.288198
296.294597
296.300486
296.305818
296.310547
296.314632
296.318157
296.321106
296.323468
296.325245
296.326453
296.327124
296.327311
296.327089
296.326563
296.325864
296.323712
296.326579
296.043942
296.044301
296.045021
296.046099
296.047536
296.04933
296.051481
296.053985
296.056843
296.06005
296.063605
296.067504
296.071744
296.076319
296.081225
296.086457
296.092008
296.097871
296.104038
296.1105
296.117247
296.124269
296.131553
296.139087
296.146855
296.154842
296.163031
296.171404
296.179939
296.188548
296.197203
296.205878
296.214541
296.223161
296.231703
296.240131
296.248409
296.256497
296.264355
296.271939
296.279206
296.286109
296.292604
296.298645
296.304187
296.309187
296.313603
296.317398
296.32066
296.323372
296.325526
296.327125
296.328186
296.328743
296.328847
296.328573
296.32802
296.327316
296.325189
296.327997
296.056181
296.056536
296.057247
296.058312
296.059731
296.061502
296.063625
296.066097
296.068916
296.072079
296.075583
296.079425
296.0836
296.088104
296.092931
296.098075
296.10353
296.109287
296.115339
296.121677
296.128289
296.135165
296.142292
296.149657
296.157246
296.165042
296.173027
296.181185
296.189428
296.197734
296.206075
296.214425
296.222753
296.231028
296.239215
296.247284
296.255198
296.262917
296.270403
296.277613
296.284506
296.29104
296.297172
296.302858
296.308058
296.312731
296.31684
296.320349
296.323349
296.325825
296.32777
296.329192
296.330107
296.330549
296.330571
296.330244
296.329665
296.328955
296.326852
296.329599
296.069022
296.069372
296.070072
296.071121
296.072519
296.074263
296.076352
296.078785
296.081558
296.084669
296.088114
296.091889
296.09599
296.100411
296.105148
296.110192
296.115538
296.121177
296.127101
296.1333
296.139763
296.146478
296.153434
296.160617
296.16801
296.1756
296.183368
296.191233
296.199173
296.207164
296.21518
296.223194
296.231176
296.239098
296.246927
296.25463
296.262171
296.269514
296.27662
296.283451
296.289966
296.296126
296.301891
296.307221
296.312078
296.316424
296.320227
296.323454
296.326197
296.328442
296.330186
296.331436
296.332211
296.332544
296.332488
296.332111
296.331507
296.330793
296.328714
296.3314
296.082495
296.082838
296.083526
296.084556
296.085928
296.087641
296.089692
296.092079
296.094799
296.09785
296.101227
296.104926
296.108942
296.11327
296.117904
296.122837
296.128062
296.13357
296.139351
296.145397
296.151697
296.158238
296.165007
296.171992
296.179176
296.186545
296.19402
296.201581
296.209205
296.21687
296.224549
296.232215
296.239843
296.247402
296.254861
296.262186
296.269345
296.2763
296.283016
296.289455
296.295579
296.301351
296.306731
296.311683
296.316169
296.320156
296.323609
296.326606
296.329132
296.331179
296.332748
296.333847
296.334498
296.334736
296.334611
296.334193
296.33357
296.332855
296.3308
296.333426
296.096632
296.096968
296.097642
296.09865
296.099994
296.10167
296.103677
296.106012
296.108673
296.111656
296.114956
296.11857
296.122492
296.126717
296.131237
296.136047
296.141138
296.146501
296.152128
296.158007
296.164129
296.17048
296.177049
296.183821
296.190782
296.197856
296.205026
296.212271
296.219568
296.226894
296.234227
296.24154
296.248805
296.255994
296.263075
296.270019
296.27679
296.283357
296.289684
296.295735
296.301476
296.306871
296.311884
296.31648
296.320626
296.324292
296.327447
296.33017
296.332448
296.334274
296.335649
296.336585
296.337104
296.337239
296.337041
296.336577
296.335932
296.335213
296.333181
296.335746
296.111473
296.111802
296.112459
296.113444
296.114755
296.116391
296.11835
296.120628
296.123223
296.126131
296.129347
296.132868
296.136687
296.140798
296.145196
296.149871
296.154817
296.160025
296.165484
296.171185
296.177116
296.183264
296.189616
296.196159
296.202823
296.209589
296.216439
296.223352
296.23031
296.237288
296.244264
296.251211
296.258102
296.264911
296.271606
296.278159
296.284537
296.290709
296.296642
296.302303
296.307659
296.312676
296.317322
296.321564
296.325374
296.328722
296.331583
296.334035
296.336068
296.337676
296.338862
296.339638
296.340026
296.340062
296.339793
296.339284
296.338617
296.337894
296.335885
296.338388
296.127063
296.127383
296.128023
296.128983
296.130259
296.131852
296.133758
296.135975
296.138499
296.141327
296.144454
296.147876
296.151587
296.15558
296.159849
296.164386
296.169184
296.174233
296.179524
296.185046
296.190788
296.196739
296.202834
296.209057
296.215393
296.221824
296.228331
296.234895
296.241494
296.248106
296.254706
296.261271
296.267774
296.274187
296.280483
296.286632
296.292605
296.29837
296.303898
296.309155
296.31411
296.318733
296.322992
296.326857
296.330299
296.333293
296.335904
296.338123
296.33994
296.341354
296.34237
296.343002
296.343273
296.343219
296.342887
296.342339
296.341654
296.34093
296.338943
296.341386
296.143453
296.143764
296.144386
296.145317
296.146556
296.148101
296.149951
296.152102
296.15455
296.157293
296.160324
296.163641
296.167236
296.171103
296.175236
296.179628
296.18427
296.189153
296.194267
296.199604
296.205102
296.210748
296.21653
296.222431
296.228435
296.234526
296.240684
296.246889
296.25312
296.259356
296.265574
296.271749
296.277856
296.283869
296.289762
296.295506
296.301073
296.306434
296.31156
296.316421
296.320988
296.325233
296.329127
296.332642
296.335753
296.338437
296.340763
296.342719
296.3443
296.345505
296.346339
296.346819
296.346967
296.346819
296.346419
296.34583
296.345125
296.344397
296.342432
296.344812
296.160708
296.161009
296.16161
296.162511
296.16371
296.165204
296.166993
296.169072
296.171439
296.174088
296.177017
296.18022
296.18369
296.187423
296.19141
296.195646
296.200121
296.204827
296.209709
296.214754
296.219952
296.225289
296.230751
296.236322
296.241987
296.247727
296.253525
296.259362
296.265217
296.271069
296.276895
296.282673
296.288377
296.293984
296.299468
296.304802
296.30996
296.314914
296.319638
296.324103
296.328284
296.332152
296.335683
296.338853
296.341638
296.344018
296.346061
296.34776
296.349108
296.350108
296.350765
296.351096
296.351125
296.350884
296.35042
296.34979
296.349066
296.348334
296.346393
296.34871
296.178927
296.179218
296.179797
296.180666
296.181821
296.183261
296.184984
296.186987
296.189265
296.191816
296.194633
296.197712
296.201046
296.204631
296.208459
296.212524
296.216774
296.221199
296.225789
296.230533
296.235418
296.240432
296.245561
296.250789
296.2561
296.261478
296.266905
296.272361
296.277828
296.283284
296.288708
296.294078
296.299371
296.304562
296.309628
296.314543
296.319282
296.32382
296.32813
296.332188
296.335967
296.339443
296.342592
296.345391
296.347818
296.349935
296.351731
296.353201
296.354341
296.355155
296.355652
296.355848
296.355768
296.355445
296.354923
296.354257
296.353517
296.352783
296.35088
296.353134
296.198262
296.198541
296.199101
296.199938
296.201053
296.202441
296.204102
296.206031
296.208226
296.210683
296.213399
296.216371
296.219551
296.222934
296.226512
296.230279
296.234224
296.238337
296.242608
296.247025
296.251575
296.256246
296.261022
296.26589
296.270833
296.275834
296.280876
296.28594
296.291008
296.29606
296.301074
296.30603
296.310905
296.315678
296.320324
296.324821
296.329144
296.33327
296.337176
296.340837
296.344231
296.347335
296.350128
296.35259
296.354702
296.356526
296.358053
296.359278
296.360199
296.360821
296.361152
296.361211
296.361021
296.360614
296.360033
296.359332
296.358574
296.357838
296.355971
296.358161
296.218858
296.219132
296.219679
296.220499
296.221592
296.222958
296.224554
296.226379
296.22843
296.230703
296.233193
296.235895
296.238802
296.241905
296.245197
296.248668
296.25231
296.256111
296.260061
296.264148
296.268359
296.272681
296.2771
296.281601
296.286169
296.290787
296.295438
296.300105
296.304768
296.30941
296.314009
296.318546
296.323
296.327349
296.331572
296.335646
296.339549
296.343259
296.346753
296.35001
296.353009
296.355727
296.358146
296.360247
296.362084
296.363649
296.364934
296.365937
296.366659
296.367104
296.367284
296.367217
296.366926
296.366443
296.365809
296.365076
296.364305
296.363567
296.361737
296.363864
296.240627
296.240866
296.241343
296.242057
296.243005
296.244184
296.245591
296.247221
296.249069
296.251131
296.253399
296.255867
296.258529
296.261376
296.264401
296.267595
296.270947
296.274447
296.278085
296.281849
296.285727
296.289705
296.293771
296.297908
296.302104
296.306341
296.310603
296.314874
296.319135
296.323369
296.327557
296.331679
296.335716
296.339648
296.343454
296.347115
296.350609
296.353916
296.357015
296.359888
296.362515
296.364878
296.366958
296.36874
296.370281
296.37157
296.372604
296.373379
296.373897
296.374166
296.374195
296.374003
296.373614
296.373058
296.372374
296.371612
296.370828
296.37009
296.368299
296.370362
296.262302
296.26252
296.262956
296.263609
296.264476
296.265556
296.266845
296.26834
296.270036
296.271928
296.274012
296.27628
296.278727
296.281344
296.284124
296.287058
296.290137
296.293351
296.29669
296.300142
296.303695
296.307337
296.311055
296.314835
296.318663
296.322523
296.3264
296.330279
296.334141
296.33797
296.341748
296.345458
296.34908
296.352597
296.355989
296.359236
296.362321
296.365224
296.367927
296.370411
296.372658
296.374653
296.376378
296.377883
296.379162
296.380206
296.381014
296.381585
296.381922
296.382033
296.381931
296.381632
296.381161
296.380549
296.379833
296.379059
296.378282
296.377567
296.375839
296.377869
296.284498
296.284698
296.285098
296.285698
296.286494
296.287485
296.288668
296.290039
296.291594
296.29333
296.29524
296.297318
296.299559
296.301955
296.304498
296.307181
296.309994
296.312927
296.315972
296.319117
296.32235
296.325661
296.329036
296.332462
296.335926
296.339413
296.34291
296.3464
296.349868
296.353298
296.356674
296.359979
296.363195
296.366306
296.369294
296.372142
296.374833
296.37735
296.379676
296.381794
296.383691
296.38535
296.386758
296.387967
296.388968
296.389758
296.390332
296.390692
296.390843
296.390792
296.390553
296.390142
296.389584
296.388906
296.388146
296.387346
296.386559
296.385843
296.384152
296.386117
296.307462
296.307645
296.30801
296.308556
296.309282
296.310186
296.311264
296.312513
296.31393
296.31551
296.317248
296.319138
296.321174
296.32335
296.325657
296.328089
296.330637
296.333291
296.336043
296.338881
296.341796
296.344775
296.347808
296.350881
296.353982
296.357098
296.360215
296.363319
296.366394
296.369427
296.372401
296.375302
296.378113
296.380819
296.383404
296.385852
296.388147
296.390274
296.392218
296.393964
296.395498
296.396807
296.397936
296.39888
296.399632
296.40019
296.400551
296.400719
296.400699
296.4005
296.400134
296.39962
296.39898
296.398242
296.397441
296.396617
296.39582
296.395104
296.393449
296.395346
296.331332
296.331497
296.331827
296.332321
296.332976
296.333792
296.334765
296.335892
296.337169
296.338593
296.340158
296.341859
296.34369
296.345645
296.347717
296.349898
296.35218
296.354555
296.357013
296.359545
296.362141
296.364791
296.367482
296.370205
296.372945
296.375692
296.378433
296.381153
296.38384
296.38648
296.389058
296.391561
296.393974
296.396282
296.398471
296.400527
296.402435
296.404181
296.405751
296.407134
296.408315
296.409337
296.410194
296.410879
296.411389
296.411722
296.411879
296.411862
296.411678
296.411337
296.410852
296.410239
296.409522
296.408728
296.407888
296.407042
296.406235
296.405518
296.403899
296.405729
296.356212
296.356359
296.356654
296.357094
296.357679
296.358406
296.359273
296.360278
296.361415
296.362682
296.364074
296.365586
296.367212
296.368946
296.370782
296.372712
296.374729
296.376826
296.378992
296.38122
296.383501
296.385823
296.388177
296.390553
296.392938
296.395322
296.397693
296.400038
296.402346
296.404603
296.406797
296.408916
296.410945
296.412872
296.414684
296.416369
296.417914
296.419306
296.420534
296.421587
296.422455
296.42318
296.423755
296.424177
296.424443
296.424552
296.424504
296.424305
296.42396
296.42348
296.422878
296.42217
296.421379
296.42053
296.419653
296.418786
296.41797
296.417252
296.415667
296.417429
296.382196
296.382325
296.382584
296.382971
296.383485
296.384124
296.384886
296.385767
296.386765
296.387876
296.389095
296.390418
296.391839
296.393353
296.394954
296.396635
296.398388
296.400208
296.402085
296.404011
296.405978
296.407976
296.409997
296.412029
296.414063
296.416088
296.418094
296.420069
296.422003
296.423883
296.425698
296.427436
296.429087
296.430637
296.432076
296.433392
296.434574
296.435611
296.436494
296.437211
296.437803
296.438263
296.438588
296.438774
296.438819
296.438725
296.438494
296.438129
296.43764
296.437035
296.436329
296.435537
296.43468
296.433783
296.432876
296.43199
296.431168
296.43045
296.4289
296.430594
296.409385
296.409497
296.40972
296.410055
296.410498
296.41105
296.411706
296.412466
296.413325
296.414281
296.415329
296.416464
296.417683
296.418979
296.420348
296.421782
296.423276
296.424822
296.426413
296.428042
296.429701
296.431381
296.433073
296.434768
296.436458
296.438132
296.439781
296.441395
296.442963
296.444476
296.445922
296.447292
296.448575
296.449761
296.450839
296.451799
296.452632
296.453329
296.453879
296.454321
296.454649
296.454858
296.454945
296.454908
296.454747
296.454464
296.454061
296.453545
296.452922
296.452203
296.451402
296.450534
296.449619
296.44868
296.447745
296.446846
296.446018
296.445302
296.443787
296.445412
296.437897
296.437992
296.438181
296.438463
296.438837
296.439302
296.439856
296.440496
296.441219
296.442022
296.442901
296.443853
296.444873
296.445956
296.447096
296.448289
296.449528
296.450808
296.45212
296.453459
296.454817
296.456187
296.45756
296.458929
296.460284
296.461618
296.462922
296.464186
296.465403
296.466561
296.467653
296.468669
296.4696
296.470436
296.47117
296.471791
296.472293
296.472666
296.472946
296.473126
296.473204
296.473176
296.47304
296.472795
296.472442
296.471982
296.471421
296.470764
296.470019
296.469197
296.468309
296.467373
296.466407
296.465432
296.464474
296.463563
296.462732
296.462018
296.460538
296.462094
296.467873
296.46795
296.468105
296.468337
296.468643
296.469024
296.469477
296.47
296.470591
296.471245
296.471961
296.472734
296.473561
296.474436
296.475356
296.476314
296.477307
296.478328
296.47937
296.480429
296.481497
296.482567
296.483633
296.484687
296.485722
296.486729
296.487702
296.488633
296.489512
296.490333
296.491088
296.491767
296.492364
296.49287
296.493278
296.493581
296.49377
296.49388
296.493904
296.493841
296.493685
296.493437
296.493093
296.492656
296.492125
296.491505
296.4908
296.490015
296.48916
296.488245
296.487281