/*--------------------------------*- C++ -*----------------------------------*\
  =========                 |
  \\      /  F ield         | OpenFOAM: The Open Source CFD Toolbox
   \\    /   O peration     | Website:  https://openfoam.org
    \\  /    A nd           | Version:  11
     \\/     M anipulation  |
\*---------------------------------------------------------------------------*/
FoamFile
{
    format      ascii;
    class       volScalarField;
    location    "1.26739e-05";
    object      h.gas;
}
// * * * * * * * * * * * * * * * * * * * * * * * * * * * * * * * * * * * * * //

dimensions      [0 2 -2 0 0 0 0];

internalField   nonuniform List<scalar> 
120000
(
384451.921
384451.921
384451.924
384451.928
384451.933
384451.94
384451.947
384451.954
384451.959
384451.962
384451.962
384451.956
384451.944
384451.922
384451.888
384451.84
384451.773
384451.683
384451.566
384451.416
384451.226
384450.988
384450.694
384450.333
384449.895
384449.364
384448.727
384447.963
384447.054
384445.974
384444.696
384443.188
384441.413
384439.326
384436.879
384434.011
384430.654
384426.728
384422.135
384416.763
384410.477
384403.115
384394.481
384384.339
384372.398
384358.302
384341.607
384321.754
384298.036
384269.547
384235.112
384193.194
384141.756
384078.072
383998.456
383897.87
383769.367
383603.285
383385.713
383103.817
384428.708
384428.689
384428.654
384428.6
384428.526
384428.431
384428.312
384428.167
384427.992
384427.785
384427.539
384427.25
384426.911
384426.515
384426.053
384425.516
384424.892
384424.168
384423.329
384422.357
384421.234
384419.937
384418.44
384416.713
384414.724
384412.432
384409.795
384406.761
384403.273
384399.264
384394.657
384389.364
384383.285
384376.301
384368.279
384359.062
384348.469
384336.292
384322.285
384306.166
384287.604
384266.213
384241.54
384213.054
384180.132
384142.04
384097.912
384046.726
383987.274
383918.127
383837.595
383743.68
383634.028
383505.869
383355.97
383180.588
382998.874
382763.227
382486.356
382215.997
384415.415
384415.379
384415.307
384415.197
384415.048
384414.855
384414.615
384414.324
384413.976
384413.563
384413.078
384412.511
384411.852
384411.088
384410.205
384409.187
384408.016
384406.67
384405.125
384403.355
384401.328
384399.009
384396.358
384393.33
384389.872
384385.927
384381.427
384376.295
384370.446
384363.781
384356.186
384347.534
384337.678
384326.452
384313.664
384299.097
384282.503
384263.597
384242.055
384217.506
384189.525
384157.628
384121.259
384079.784
384032.479
383978.516
383916.954
383846.715
383766.58
383675.16
383570.886
383451.987
383316.475
383162.125
383009.778
382813.524
382590.747
382338.298
382049.568
381810.164
384407.194
384407.141
384407.035
384406.872
384406.649
384406.363
384406.006
384405.572
384405.053
384404.439
384403.718
384402.879
384401.907
384400.785
384399.494
384398.014
384396.319
384394.384
384392.176
384389.661
384386.799
384383.546
384379.851
384375.656
384370.898
384365.503
384359.387
384352.459
384344.611
384335.725
384325.666
384314.281
384301.398
384286.822
384270.334
384251.685
384230.594
384206.746
384179.784
384149.305
384114.855
384075.924
384031.936
383982.247
383926.129
383862.768
383791.252
383710.561
383619.555
383516.963
383401.374
383271.219
383124.764
382983.868
382802.079
382598.062
382369.337
382113.229
381823.055
381602.917
384401.926
384401.854
384401.71
384401.49
384401.19
384400.803
384400.322
384399.74
384399.045
384398.227
384397.272
384396.165
384394.889
384393.424
384391.748
384389.837
384387.661
384385.19
384382.387
384379.211
384375.617
384371.554
384366.963
384361.779
384355.929
384349.331
384341.892
384333.508
384324.062
384313.424
384301.446
384287.963
384272.789
384255.719
384236.519
384214.928
384190.656
384163.375
384132.723
384098.29
384059.622
384016.21
383967.489
383912.826
383851.52
383782.788
383705.763
383619.481
383522.872
383414.755
383293.821
383158.623
383030.556
382864.811
382679.866
382473.635
382243.831
381987.976
381699.355
381487.399
384398.379
384398.285
384398.095
384397.807
384397.417
384396.92
384396.307
384395.571
384394.7
384393.681
384392.501
384391.141
384389.583
384387.805
384385.783
384383.488
384380.889
384377.95
384374.633
384370.893
384366.679
384361.935
384356.6
384350.602
384343.863
384336.295
384327.799
384318.267
384307.574
384295.584
384282.144
384267.083
384250.211
384231.315
384210.158
384186.478
384159.981
384130.34
384097.193
384060.135
384018.719
383972.447
383920.767
383863.065
383798.663
383726.809
383646.671
383557.328
383457.761
383346.846
383223.342
383107.563
382957.286
382790.186
382604.464
382398.143
382169.052
381914.844
381628.833
381412.834
384395.831
384395.707
384395.46
384395.091
384394.601
384393.985
384393.238
384392.35
384391.31
384390.104
384388.716
384387.127
384385.317
384383.261
384380.933
384378.303
384375.337
384371.996
384368.24
384364.02
384359.284
384353.972
384348.019
384341.351
384333.887
384325.534
384316.192
384305.747
384294.073
384281.03
384266.463
384250.198
384232.043
384211.785
384189.186
384163.985
384135.887
384104.572
384069.679
384030.811
383987.529
383939.346
383885.723
383826.064
383759.71
383685.934
383603.93
383512.811
383411.596
383299.204
383174.443
383058.52
382907.617
382740.288
382554.811
382349.293
382121.657
381869.664
381586.691
381369.781
384393.849
384393.687
384393.37
384392.91
384392.313
384391.578
384390.7
384389.669
384388.472
384387.095
384385.519
384383.724
384381.688
384379.385
384376.786
384373.861
384370.573
384366.882
384362.745
384358.111
384352.927
384347.13
384340.654
384333.421
384325.349
384316.344
384306.302
384295.108
384282.635
384268.742
384253.271
384236.048
384216.881
384195.557
384171.84
384145.468
384116.152
384083.573
384047.377
384007.172
383962.528
383912.967
383857.962
383796.932
383729.234
383654.162
383570.934
383478.689
383376.477
383263.255
383137.869
383022.192
382871.223
382704.184
382519.421
382315.112
382089.267
381839.743
381560.001
381344.075
384392.166
384391.957
384391.562
384391.005
384390.301
384389.451
384388.449
384387.284
384385.942
384384.407
384382.658
384380.675
384378.432
384375.905
384373.061
384369.869
384366.291
384362.285
384357.807
384352.805
384347.223
384340.998
384334.061
384326.334
384317.733
384308.161
384297.515
384285.678
384272.522
384257.905
384241.668
384223.639
384203.626
384181.414
384156.771
384129.436
384099.124
384065.518
384028.269
383986.993
383941.266
383890.619
383834.536
383772.448
383703.73
383627.69
383543.568
383450.528
383347.647
383233.912
383129.523
382993.04
382842.278
382675.784
382491.964
382289.066
382065.178
381818.251
381541.837
381328.026
384390.613
384390.354
384389.875
384389.22
384388.41
384387.449
384386.33
384385.038
384383.56
384381.875
384379.964
384377.803
384375.368
384372.629
384369.556
384366.115
384362.266
384357.968
384353.174
384347.832
384341.883
384335.264
384327.904
384319.726
384310.641
384300.555
384289.362
384276.944
384263.173
384247.907
384230.987
384212.239
384191.473
384168.477
384143.017
384114.837
384083.653
384049.153
384010.992
383968.792
383922.136
383870.563
383813.569
383750.597
383681.033
383604.206
383519.374
383425.723
383322.359
383208.297
383104.204
382967.82
382817.429
382651.631
382468.89
382267.522
382045.692
381801.441
381528.415
381317.39
384389.082
384388.768
384388.204
384387.452
384386.54
384385.472
384384.238
384382.824
384381.213
384379.384
384377.315
384374.983
384372.36
384369.417
384366.123
384362.441
384358.332
384353.754
384348.656
384342.987
384336.688
384329.693
384321.931
384313.323
384303.781
384293.208
384281.498
384268.533
384254.185
384238.309
384220.749
384201.331
384179.864
384156.139
384129.922
384100.96
384068.972
384033.65
383994.654
383951.61
383904.11
383851.7
383793.887
383730.124
383659.815
383582.301
383496.861
383402.703
383298.958
383184.673
383080.943
382944.753
382794.827
382629.814
382448.235
382248.473
382028.766
381787.246
381517.647
381309.808
384387.496
384387.127
384386.479
384385.632
384384.62
384383.445
384382.099
384380.564
384378.82
384376.848
384374.622
384372.119
384369.31
384366.165
384362.651
384358.731
384354.365
384349.508
384344.111
384338.121
384331.477
384324.113
384315.957
384306.928
384296.938
384285.89
384273.677
384260.18
384245.271
384228.805
384210.626
384190.56
384168.418
384143.99
384117.047
384087.336
384054.58
384018.474
383978.684
383934.841
383886.543
383833.347
383774.766
383710.27
383639.272
383561.131
383475.147
383380.547
383276.489
383162.048
383058.731
382922.803
382773.408
382609.244
382428.889
382230.789
382013.256
381774.506
381508.368
381303.953
384385.803
384385.381
384384.649
384383.708
384382.595
384381.315
384379.854
384378.196
384376.319
384374.2
384371.816
384369.139
384366.142
384362.792
384359.055
384354.895
384350.269
384345.132
384339.435
384333.121
384326.13
384318.397
384309.845
384300.396
384289.96
384278.439
384265.725
384251.7
384236.233
384219.183
384200.391
384179.686
384156.879
384131.761
384104.105
384073.661
384040.154
384003.284
383962.72
383918.102
383869.034
383815.08
383755.765
383690.569
383618.92
383540.195
383453.709
383358.714
383254.392
383139.848
383036.989
382901.377
382752.565
382589.303
382410.222
382213.832
381998.514
381762.572
381499.921
381299.074
384383.962
384383.488
384382.675
384381.639
384380.425
384379.036
384377.458
384375.673
384373.659
384371.39
384368.842
384365.987
384362.795
384359.235
384355.271
384350.864
384345.972
384340.55
384334.545
384327.902
384320.559
384312.449
384303.498
384293.623
384282.735
384270.736
384257.517
384242.959
384226.934
384209.297
384189.892
384168.548
384145.076
384119.27
384090.905
384059.733
384025.483
383987.858
383946.534
383901.155
383851.331
383796.638
383736.61
383670.737
383598.463
383519.18
383432.222
383336.863
383232.309
383138.848
383015.41
382880.15
382731.963
382569.644
382391.88
382197.239
381984.176
381751.073
381491.934
381294.743
384381.941
384381.416
384380.522
384379.391
384378.072
384376.57
384374.872
384372.955
384370.797
384368.372
384365.654
384362.614
384359.222
384355.444
384351.244
384346.583
384341.417
384335.7
384329.379
384322.398
384314.694
384306.2
384296.839
384286.529
384275.181
384262.695
384248.963
384233.866
384217.274
384199.044
384179.02
384157.032
384132.893
384106.398
384077.323
384045.424
384010.434
383972.059
383929.981
383883.85
383833.284
383777.867
383717.144
383650.617
383577.744
383497.933
383410.537
383314.852
383210.109
383116.996
382993.731
382858.874
382711.362
382550.035
382373.635
382180.79
381970.024
381739.796
381484.191
381290.712
384379.709
384379.134
384378.159
384376.93
384375.503
384373.885
384372.059
384370.004
384367.696
384365.109
384362.213
384358.98
384355.379
384351.374
384346.929
384342.004
384336.554
384330.532
384323.885
384316.556
384308.48
384299.589
384289.808
384279.053
384267.233
384254.25
384239.994
384224.348
384207.18
384188.348
384167.698
384145.059
384120.247
384093.057
384063.27
384030.643
383994.913
383955.791
383912.964
383866.088
383814.79
383758.662
383697.259
383630.097
383556.646
383476.332
383388.526
383292.547
383187.649
383094.923
382971.869
382837.455
382690.659
382530.368
382355.375
382164.367
381955.939
381728.62
381476.571
381286.841
384377.238
384376.615
384375.557
384374.227
384372.688
384370.946
384368.987
384366.787
384364.322
384361.563
384358.481
384355.047
384351.226
384346.985
384342.285
384337.086
384331.341
384325.003
384318.018
384310.328
384301.868
384292.569
384282.355
384271.142
384258.839
384245.347
384230.556
384214.349
384196.594
384177.151
384155.865
384132.568
384107.075
384079.185
384048.681
384015.324
383978.853
383938.985
383895.413
383847.799
383795.778
383738.95
383676.882
383609.102
383535.095
383454.302
383366.115
383269.872
383164.854
383072.558
382949.754
382815.824
382669.787
382510.575
382337.031
382147.901
381941.849
381717.471
381469.003
381283.048
384374.501
384373.828
384372.687
384371.252
384369.594
384367.722
384365.622
384363.27
384360.639
384357.7
384354.423
384350.777
384346.728
384342.24
384337.274
384331.788
384325.737
384319.071
384311.736
384303.672
384294.815
384285.095
384274.436
384262.752
384249.953
384235.939
384220.601
384203.82
384185.468
384165.403
384143.472
384119.507
384093.326
384064.731
384033.505
383999.414
383962.202
383921.591
383877.276
383828.93
383776.194
383718.679
383655.962
383587.582
383513.041
383431.795
383343.255
383246.781
383141.678
383049.857
382927.343
382793.939
382648.704
382490.615
382318.563
382131.352
381927.713
381706.308
381461.446
381279.285
384371.466
384370.744
384369.516
384367.971
384366.188
384364.18
384361.931
384359.418
384356.613
384353.484
384350.003
384346.135
384341.846
384337.1
384331.857
384326.073
384319.703
384312.697
384304.998
384296.548
384287.281
384277.127
384266.008
384253.84
384240.531
384225.983
384210.085
384192.72
384173.758
384153.061
384130.474
384105.833
384078.957
384049.65
384017.699
383982.873
383944.919
383903.564
383858.512
383809.44
383755.999
383697.808
383634.455
383565.492
383490.436
383408.758
383319.889
383223.209
383139.194
383026.817
382904.626
382771.786
382627.393
382470.467
382299.948
382114.696
381913.507
381695.107
381453.873
381275.521
384368.102
384367.33
384366.011
384364.352
384362.437
384360.285
384357.879
384355.196
384352.206
384348.879
384345.182
384341.082
384336.543
384331.527
384325.995
384319.901
384313.2
384305.839
384297.764
384288.914
384279.223
384268.621
384257.029
384244.364
384230.533
384215.437
384198.967
384181.005
384161.424
384140.083
384116.833
384091.508
384063.93
384033.906
384001.227
383965.663
383926.968
383884.874
383839.09
383789.302
383735.167
383676.315
383612.345
383542.823
383467.278
383385.2
383296.038
383199.194
383115.568
383003.357
382881.538
382749.311
382605.808
382450.093
382281.154
382097.905
381899.207
381683.845
381446.266
381271.735
384364.373
384363.549
384362.137
384360.357
384358.304
384355.999
384353.428
384350.565
384347.382
384343.845
384339.923
384335.579
384330.778
384325.481
384319.647
384313.23
384306.184
384298.457
384289.992
384280.729
384270.601
384259.537
384247.459
384234.283
384219.917
384204.26
384187.206
384168.636
384148.424
384126.431
384102.507
384076.491
384048.206
384017.461
383984.05
383947.749
383908.315
383865.486
383818.977
383768.482
383713.666
383654.169
383589.601
383519.542
383443.534
383361.085
383271.661
383174.687
383091.495
382979.489
382858.085
382726.514
382583.947
382429.489
382262.175
382080.972
381884.803
381672.513
381438.615
381267.914
384360.241
384359.363
384357.854
384355.947
384353.748
384351.282
384348.536
384345.484
384342.097
384338.341
384334.181
384329.583
384324.508
384318.918
384312.769
384306.017
384298.614
384290.507
384281.638
384271.948
384261.369
384249.83
384237.253
384223.553
384208.638
384192.409
384174.758
384155.57
384134.716
384112.061
384087.457
384060.743
384031.745
384000.275
383966.132
383929.094
383888.924
383845.365
383798.139
383746.947
383691.464
383631.339
383566.194
383495.62
383419.176
383336.387
383246.736
383149.671
383066.961
382955.203
382834.257
382703.388
382561.803
382408.648
382243.004
382063.889
381870.289
381661.105
381430.911
381264.05
384355.661
384354.729
384353.119
384351.079
384348.726
384346.089
384343.159
384339.909
384336.307
384332.32
384327.913
384323.048
384317.687
384311.791
384305.316
384298.216
384290.441
384281.941
384272.656
384262.525
384251.482
384239.454
384226.364
384212.127
384196.651
384179.838
384161.58
384141.761
384120.257
384096.932
384071.64
384044.222
384014.507
383982.31
383947.433
383909.66
383868.757
383824.475
383776.541
383724.664
383668.527
383607.791
383542.088
383471.022
383394.168
383311.064
383221.215
383145.13
383041.975
382930.501
382810.054
382679.93
382539.372
382387.566
382223.636
382046.651
381855.658
381649.612
381423.147
381260.134
384350.587
384349.599
384347.884
384345.705
384343.19
384340.374
384337.249
384333.789
384329.962
384325.733
384321.066
384315.923
384310.265
384304.05
384297.235
384289.774
384281.616
384272.709
384262.994
384252.409
384240.889
384228.359
384214.744
384199.957
384183.908
384166.499
384147.623
384127.165
384105.002
384080.999
384055.013
384026.886
383996.452
383963.528
383927.919
383889.414
383847.785
383802.788
383754.158
383701.61
383644.839
383583.513
383517.278
383445.751
383368.519
383285.14
383195.137
383119.472
383016.467
382905.328
382785.431
382656.103
382516.624
382366.217
382204.05
382029.24
381840.896
381638.023
381415.314
381256.155
384344.966
384343.92
384342.096
384339.771
384337.086
384334.081
384330.751
384327.071
384323.008
384318.526
384313.588
384308.155
384302.186
384295.641
384288.474
384280.638
384272.083
384262.756
384252.598
384241.546
384229.535
384216.492
384202.338
384186.99
384170.357
384152.342
384132.838
384111.732
384088.902
384064.215
384037.53
384008.692
383977.536
383943.885
383907.547
383868.315
383825.968
383780.266
383730.953
383677.752
383620.365
383558.472
383491.731
383419.77
383342.194
383258.575
383168.454
383093.262
382990.448
382879.69
382760.39
382631.908
382493.556
382344.597
382184.241
382011.653
381825.998
381626.332
381407.404
381252.105
384338.74
384337.634
384335.698
384333.221
384330.357
384327.153
384323.609
384319.698
384315.387
384310.64
384305.418
384299.682
384293.391
384286.503
384278.971
384270.748
384261.783
384252.023
384241.409
384229.878
384217.364
384203.794
384189.09
384173.17
384155.942
384137.31
384117.17
384095.408
384071.904
384046.528
384019.14
383989.588
383957.712
383923.335
383886.272
383846.32
383803.263
383756.869
383706.887
383653.049
383595.068
383532.633
383465.412
383393.05
383315.163
383231.342
383141.147
383066.48
382963.903
382853.573
382734.921
382607.334
382470.161
382322.7
382164.204
381993.882
381810.958
381614.532
381399.004
381247.976
384331.844
384330.678
384328.624
384325.989
384322.938
384319.526
384315.756
384311.603
384307.033
384302.009
384296.492
384290.442
384283.816
384276.571
384268.661
384260.039
384250.652
384240.446
384229.363
384217.34
384204.311
384190.203
384174.938
384158.435
384140.602
384121.345
384100.56
384078.136
384053.953
384027.884
383999.79
383969.524
383936.927
383901.829
383864.046
383823.382
383779.626
383732.552
383681.917
383627.461
383568.907
383505.953
383438.281
383365.546
383287.381
383203.392
383134.378
383039.131
382936.834
382826.977
382709.018
382582.377
382446.432
382300.519
382143.93
381975.929
381795.777
381602.615
381389.577
381243.757
384324.207
384322.979
384320.805
384318.006
384314.759
384311.129
384307.122
384302.715
384297.875
384292.562
384286.738
384280.361
384273.387
384265.774
384257.474
384248.44
384238.618
384227.954
384216.391
384203.865
384190.309
384175.651
384159.816
384142.719
384124.274
384104.384
384082.947
384059.855
384034.989
384008.224
383979.424
383948.446
383915.132
383879.317
383840.823
383799.457
383755.016
383707.279
383656.011
383600.962
383541.86
383478.419
383410.329
383337.26
383258.86
383174.749
383106.225
383011.141
382909.177
382799.849
382682.64
382556.999
382422.337
382278.025
382123.396
381957.764
381780.428
381590.563
381380.025
381239.432
384315.75
384314.459
384312.162
384309.192
384305.741
384301.884
384297.63
384292.958
384287.835
384282.222
384276.078
384269.361
384262.029
384254.035
384245.333
384235.873
384225.605
384214.472
384202.416
384189.375
384175.282
384160.066
384143.65
384125.952
384106.886
384086.356
384064.263
384040.498
384014.947
383987.485
383957.981
383926.292
383892.267
383855.744
383816.548
383774.494
383729.382
383681
383629.121
383573.502
383513.882
383449.983
383381.51
383308.145
383229.55
383145.363
383077.386
382982.513
382880.932
382772.185
382655.779
382531.193
382397.869
382255.211
382102.593
381939.376
381764.899
381578.367
381370.335
381234.989
384306.386
384305.031
384302.608
384299.462
384295.799
384291.705
384287.192
384282.244
384276.826
384270.901
384264.426
384257.358
384249.654
384241.267
384232.151
384222.256
384211.529
384199.915
384187.357
384173.791
384159.151
384143.366
384126.362
384108.055
384088.361
384067.187
384044.433
384019.994
383993.756
383965.599
383935.393
383902.999
383868.269
383831.046
383791.16
383748.431
383702.666
383653.659
383601.191
383545.027
383484.916
383420.592
383351.769
383278.143
383199.391
383136.353
383047.856
382953.238
382852.09
382743.974
382628.425
382504.948
382373.014
382232.064
382081.506
381920.752
381749.175
381566.01
381360.489
381230.41
384296.017
384294.598
384292.046
384288.719
384284.837
384280.496
384275.715
384270.479
384264.755
384258.505
384251.687
384244.256
384236.169
384227.378
384217.836
384207.494
384196.298
384184.193
384171.122
384157.022
384141.827
384125.466
384107.865
384088.945
384068.619
384046.796
384023.38
383998.266
383971.343
383942.493
383911.59
383878.498
383843.073
383805.163
383764.602
383721.216
383674.819
383625.211
383572.182
383515.504
383454.937
383390.225
383321.095
383247.255
383168.397
383105.892
383017.552
382923.247
382822.59
382715.165
382600.532
382478.222
382347.738
382208.551
382060.107
381901.867
381733.234
381553.473
381350.464
381225.672
384284.537
384283.053
384280.371
384276.859
384272.751
384268.153
384263.093
384257.558
384251.517
384244.931
384237.758
384229.952
384221.47
384212.264
384202.286
384191.486
384179.811
384167.206
384153.613
384138.971
384123.213
384106.27
384088.068
384068.528
384047.567
384025.094
384001.015
383975.227
383947.622
383918.085
383886.492
383852.712
383816.605
383778.021
383736.803
383692.78
383645.774
383595.591
383542.029
383484.87
383423.882
383358.822
383289.426
383215.418
383136.501
383074.596
382986.464
382892.527
382792.417
382685.741
382572.082
382450.999
382322.022
382184.655
382038.378
381882.701
381717.056
381540.733
381340.234
381220.752
384271.826
384270.279
384267.464
384263.763
384259.422
384254.56
384249.211
384243.367
384236.997
384230.064
384222.524
384214.333
384205.445
384195.813
384185.389
384174.122
384161.959
384148.845
384134.723
384119.53
384103.203
384085.673
384066.866
384046.704
384025.106
384001.984
383977.243
383950.785
383922.504
383892.286
383860.013
383825.556
383788.78
383749.54
383707.684
383663.046
383615.455
383564.725
383510.661
383453.053
383391.681
383326.31
383256.69
383182.556
383125.004
383042.444
382954.571
382861.055
382761.548
382655.677
382543.051
382423.253
382295.842
382160.35
382016.297
381863.233
381700.616
381527.765
381329.77
381215.622
384257.752
384256.142
384253.196
384249.303
384244.724
384239.589
384233.942
384227.777
384221.068
384213.776
384205.859
384197.272
384187.969
384177.901
384167.021
384155.278
384142.619
384128.989
384114.331
384098.584
384081.683
384063.562
384044.147
384023.364
384001.13
383977.359
383951.962
383924.84
383895.89
383865.002
383832.061
383796.943
383759.516
383719.641
383677.169
383631.943
383583.797
383532.553
383478.023
383420.008
383358.295
383292.662
383222.869
383148.665
383091.724
383009.34
382921.788
382828.757
382729.916
382624.916
382513.387
382394.937
382269.152
382135.598
381993.835
381843.438
381683.881
381514.537
381319.034
381210.244
384242.17
384240.498
384237.42
384233.333
384228.511
384223.097
384217.143
384210.648
384203.589
384195.929
384187.625
384178.632
384168.904
384158.392
384147.048
384134.821
384121.659
384107.508
384092.309
384076.003
384058.526
384039.812
384019.79
383998.385
383975.518
383951.105
383925.057
383897.279
383867.671
383836.126
383802.533
383766.77
383728.712
383688.224
383645.162
383599.377
383550.706
383498.982
383444.023
383385.639
383323.628
383257.776
383187.857
383134.84
383057.426
382975.272
382888.097
382795.608
382697.495
382593.427
382483.057
382366.017
382241.921
382110.362
381970.946
381823.267
381666.813
381501.013
381307.983
381204.577
384224.916
384223.184
384219.976
384215.695
384210.627
384204.928
384198.658
384191.825
384184.407
384176.369
384167.668
384158.26
384148.098
384137.134
384125.32
384112.603
384098.933
384084.255
384068.513
384051.646
384033.592
384014.286
383993.659
383971.637
383948.143
383923.094
383896.404
383867.982
383837.73
383805.545
383771.317
383734.932
383696.267
383655.193
383611.572
383565.26
383516.102
383463.937
383408.593
383349.888
383287.629
383221.614
383151.627
383099.254
383022.001
382940.14
382853.409
382761.53
382664.211
382561.142
382451.999
382336.436
382214.092
382084.59
381947.579
381802.672
381649.366
381487.146
381296.565
381198.573
384205.809
384204.02
384200.684
384196.211
384190.895
384184.905
384178.314
384171.135
384163.349
384154.924
384145.819
384135.988
384125.385
384113.963
384101.671
384088.461
384074.279
384059.072
384042.784
384025.356
384006.727
383986.833
383965.605
383942.972
383918.858
383893.184
383865.865
383836.813
383805.933
383773.126
383738.286
383701.303
383662.058
383620.427
383576.279
383529.475
383479.868
383427.303
383371.617
383312.636
383250.177
383184.049
383135.248
383062.449
382985.413
382903.906
382817.68
382726.476
382630.017
382528.015
382420.165
382306.144
382185.616
382058.232
381923.685
381781.601
381631.489
381472.884
381284.719
381192.171
384184.648
384182.804
384179.345
384174.681
384169.117
384162.835
384155.918
384148.386
384140.226
384131.407
384121.889
384111.628
384100.579
384088.693
384075.921
384062.213
384047.517
384031.781
384014.949
383996.962
383977.762
383957.284
383935.463
383912.228
383887.506
383861.22
383833.288
383803.624
383772.137
383738.731
383703.305
383665.752
383625.958
383583.806
383539.169
383491.914
383441.903
383388.986
383333.009
383273.808
383211.209
383145.03
383096.929
383024.293
382947.543
382866.459
382780.81
382690.351
382594.824
382493.96
382387.474
382275.065
382156.421
382031.23
381899.208
381759.99
381613.115
381458.164
381272.371
381185.301
384161.208
384159.314
384155.736
384150.886
384145.077
384138.501
384131.254
384123.364
384114.824
384105.605
384095.67
384084.974
384073.474
384061.12
384047.865
384033.659
384018.45
384002.186
383984.812
383966.272
383946.506
383925.454
383903.049
383879.225
383853.909
383827.028
383798.501
383768.246
383736.176
383702.197
383666.213
383628.122
383587.814
383545.177
383500.091
383452.428
383402.057
383348.837
383292.621
383233.253
383170.569
383125.758
383057.136
382984.723
382908.324
382827.731
382742.727
382653.083
382558.56
382458.905
382353.853
382243.125
382126.433
382003.508
381874.074
381737.765
381594.172
381442.911
381259.433
381177.878
384135.237
384133.297
384129.608
384124.579
384118.528
384111.661
384104.084
384095.834
384086.909
384077.286
384066.929
384055.796
384043.841
384031.019
384017.28
384002.576
383986.856
383970.069
383952.159
383933.073
383912.752
383891.136
383868.161
383843.763
383817.872
383790.415
383761.316
383730.496
383697.87
383663.349
383626.841
383588.247
383547.465
383504.385
383458.895
383410.873
383360.194
383306.725
383250.326
383190.85
383149.108
383084.163
383015.719
382943.601
382867.624
382787.595
382703.31
382614.558
382521.114
382422.742
382319.198
382210.223
382095.554
381974.96
381848.175
381714.83
381574.566
381427.031
381245.797
381169.799
384106.453
384104.473
384100.681
384095.482
384089.198
384082.044
384074.137
384065.527
384056.217
384046.188
384035.408
384023.835
384011.426
383998.136
383983.916
383968.718
383952.492
383935.188
383916.752
383897.13
383876.266
383854.101
383830.574
383805.622
383779.177
383751.169
383721.526
383690.17
383657.021
383621.994
383585
383545.946
383504.733
383461.259
383415.416
383367.089
383316.16
383262.503
383205.986
383146.472
383105.519
383040.719
382972.527
382900.778
382825.301
382745.913
382662.428
382574.645
382482.358
382385.349
382283.39
382176.243
382063.672
381945.481
381821.402
381691.074
381554.186
381410.416
381231.337
381160.941
384074.539
384072.526
384068.641
384063.284
384056.776
384049.343
384041.114
384032.146
384022.452
384012.018
384000.815
383988.804
383975.943
383962.187
383947.491
383931.805
383915.081
383897.27
383878.319
383858.175
383836.784
383814.089
383790.03
383764.546
383737.572
383709.042
383678.884
383647.026
383613.39
383577.896
383540.458
383500.988
383459.393
383415.575
383369.432
383320.856
383269.735
383215.951
383159.381
383121.328
383059.882
382995.298
382927.43
382856.125
382781.222
382702.555
382619.947
382533.214
382442.164
382346.595
382246.298
382141.056
382030.675
381914.958
381793.626
381666.369
381532.903
381390.573
381215.901
381151.16
384039.139
384037.101
384033.134
384027.633
384020.917
384013.217
384004.673
383995.354
383985.281
383974.446
383962.823
383950.378
383937.07
383922.856
383907.69
383891.525
383874.315
383856.009
383836.558
383815.91
383794.012
383770.809
383746.242
383720.254
383692.782
383663.761
383633.125
383600.803
383566.722
383530.804
383492.969
383453.134
383411.209
383367.104
383320.72
383271.958
383220.712
383166.869
383131.576
383073.229
383011.975
382947.684
382880.22
382809.44
382735.196
382657.331
382575.684
382490.084
382400.354
382306.308
382207.752
382104.493
381996.377
381883.205
381764.684
381640.553
381510.557
381368.983
381199.302
381140.276
383999.85
383997.795
383993.761
383988.135
383981.228
383973.277
383964.432
383954.773
383944.33
383933.101
383921.066
383908.194
383894.447
383879.783
383864.159
383847.528
383829.845
383811.063
383791.131
383770
383747.618
383723.933
383698.888
383672.427
383644.491
383615.018
383583.944
383551.201
383516.72
383480.428
383442.25
383402.104
383359.909
383315.578
383269.019
383220.138
383168.836
383136.19
383080.72
383022.551
382961.569
382897.652
382830.675
382760.505
382687.004
382610.029
382529.43
382445.05
382356.725
382264.286
382167.557
382066.381
381960.611
381850.033
381734.383
381613.435
381486.957
381345.977
381181.321
381128.075
383956.215
383954.153
383950.068
383944.336
383937.261
383929.08
383919.953
383909.97
383899.17
383887.56
383875.125
383861.838
383847.664
383832.564
383816.496
383799.416
383781.279
383762.04
383741.65
383720.062
383697.225
383673.088
383647.599
383620.702
383592.342
383562.458
383530.991
383497.876
383463.048
383426.437
383387.971
383347.577
383305.175
383260.685
383214.02
383165.094
383135.013
383082.223
383026.925
382969.017
382908.391
382844.934
382778.532
382709.06
382636.393
382560.398
382480.937
382397.866
382311.035
382220.289