/*--------------------------------*- C++ -*----------------------------------*\
  =========                 |
  \\      /  F ield         | OpenFOAM: The Open Source CFD Toolbox
   \\    /   O peration     | Website:  https://openfoam.org
    \\  /    A nd           | Version:  11
     \\/     M anipulation  |
\*---------------------------------------------------------------------------*/
FoamFile
{
    format      ascii;
    class       volScalarField;
    location    "1.26739e-05";
    object      p;
}
// * * * * * * * * * * * * * * * * * * * * * * * * * * * * * * * * * * * * * //

dimensions      [1 -1 -2 0 0 0 0];

internalField   nonuniform List<scalar> 
120000
(
6099888.53
6099893.99
6099904.95
6099921.46
6099943.61
6099971.52
6100005.35
6100045.25
6100091.46
6100144.19
6100203.73
6100270.36
6100344.44
6100426.32
6100516.42
6100615.17
6100723.04
6100840.56
6100968.27
6101106.77
6101256.68
6101418.69
6101593.49
6101781.85
6101984.55
6102202.45
6102436.4
6102687.34
6102956.21
6103244
6103551.75
6103880.49
6104231.32
6104605.31
6105003.59
6105427.25
6105877.37
6106355.02
6106861.18
6107396.76
6107962.53
6108559.08
6109186.7
6109845.35
6110534.45
6111252.73
6111997.95
6112766.6
6113553.4
6114350.78
6115148.09
6115930.8
6116679.41
6117368.5
6117965.9
6118432.76
6118725.27
6118800.31
6118500.9
6118751.7
6101118.52
6101130.77
6101155.33
6101192.3
6101241.84
6101304.18
6101379.56
6101468.3
6101570.77
6101687.38
6101818.58
6101964.89
6102126.88
6102305.14
6102500.31
6102713.11
6102944.24
6103194.49
6103464.65
6103755.55
6104068.03
6104402.96
6104761.2
6105143.62
6105551.05
6105984.32
6106444.2
6106931.37
6107446.46
6107989.97
6108562.26
6109163.51
6109793.69
6110452.5
6111139.36
6111853.31
6112592.96
6113356.42
6114141.25
6114944.32
6115761.74
6116588.79
6117419.74
6118247.81
6119064.99
6119862
6120628.18
6121351.42
6122018.22
6122613.79
6123122.33
6123527.5
6123813.21
6123964.8
6123970.79
6123825.34
6123530.62
6123136.24
6122363.68
6122578.95
6102439.2
6102457.89
6102495.35
6102551.71
6102627.21
6102722.11
6102836.77
6102971.61
6103127.1
6103303.79
6103502.28
6103723.24
6103967.39
6104235.49
6104528.37
6104846.88
6105191.92
6105564.4
6105965.28
6106395.5
6106856.01
6107347.72
6107871.54
6108428.29
6109018.74
6109643.55
6110303.25
6110998.22
6111728.62
6112494.4
6113295.2
6114130.36
6114998.81
6115899.03
6116829
6117786.11
6118767.1
6119767.95
6120783.85
6121809.05
6122836.87
6123859.54
6124868.19
6125852.79
6126802.13
6127703.86
6128544.56
6129309.85
6129984.6
6130553.16
6131000.58
6131313.19
6131479.53
6131491.56
6131346.25
6131081.02
6130715.41
6130277.99
6129502.96
6129755.99
6103840.74
6103865.33
6103914.59
6103988.71
6104087.93
6104212.59
6104363.09
6104539.92
6104743.64
6104974.87
6105234.32
6105522.74
6105840.95
6106189.82
6106570.26
6106983.22
6107429.68
6107910.63
6108427.06
6108979.96
6109570.28
6110198.92
6110866.72
6111574.41
6112322.6
6113111.77
6113942.16
6114813.83
6115726.53
6116679.73
6117672.5
6118703.5
6119770.89
6120872.31
6122004.76
6123164.58
6124347.35
6125547.83
6126759.9
6127976.48
6129189.5
6130389.83
6131567.27
6132710.54
6133807.33
6134844.26
6135807.8
6136684.37
6137460.83
6138105.3
6138605.03
6138948.11
6139124.53
6139132.96
6139014.46
6138784.19
6138461.97
6138079.83
6137378.51
6137702.87
6105270.2
6105300.01
6105359.73
6105449.55
6105569.74
6105720.66
6105902.76
6106116.54
6106362.62
6106641.67
6106954.43
6107301.69
6107684.33
6108103.24
6108559.38
6109053.72
6109587.25
6110160.96
6110775.84
6111432.83
6112132.84
6112876.68
6113665.08
6114498.65
6115377.82
6116302.85
6117273.74
6118290.26
6119351.82
6120457.5
6121605.95
6122795.36
6124023.4
6125287.13
6126582.99
6127906.73
6129253.31
6130616.91
6131990.82
6133367.47
6134738.35
6136094.04
6137424.21
6138717.67
6139963.16
6141130.36
6142206.11
6143176.37
6144026.59
6144742.04
6145309.11
6145716.01
6145953.39
6146049.66
6146008.9
6145841.88
6145587.21
6145275.89
6144652.36
6145040.19
6106683.07
6106717.37
6106786.08
6106889.4
6107027.59
6107201.03
6107410.18
6107655.56
6107937.78
6108257.52
6108615.54
6109012.64
6109449.67
6109927.53
6110447.16
6111009.51
6111615.52
6112266.16
6112962.33
6113704.91
6114494.71
6115332.42
6116218.65
6117153.83
6118138.23
6119171.89
6120254.6
6121385.85
6122564.81
6123790.24
6125060.48
6126373.38
6127726.26
6129115.84
6130538.2
6131988.73
6133462.06
6134952.05
6136451.72
6137953.22
6139447.85
6140925.99
6142377.84
6143774.51
6145103.7
6146351.73
6147504.4
6148547.11
6149465.24
6150244.61
6150871.97
6151335.54
6151658.03
6151838.8
6151882.48
6151801.01
6151615.71
6151358.6
6150806.49
6151238.95
6108050.85
6108088.93
6108165.19
6108279.83
6108433.11
6108625.41
6108857.17
6109128.91
6109441.22
6109794.78
6110190.29
6110628.55
6111110.37
6111636.61
6112208.15
6112825.89
6113490.7
6114203.44
6114964.96
6115776
6116637.24
6117549.28
6118512.53
6119527.28
6120593.61
6121711.37
6122880.12
6124099.16
6125367.39
6126683.36
6128045.15
6129450.37
6130896.1
6132378.83
6133894.46
6135438.2
6137004.56
6138587.34
6140179.59
6141773.6
6143360.94
6144914.96
6146424.79
6147878.15
6149262.01
6150562.73
6151766.2
6152858.14
6153824.46
6154651.7
6155327.22
6155839.94
6156213.88
6156447.96
6156546.63
6156521.51
6156393.28
6156193.41
6155702
6156163.33
6109360.84
6109402.03
6109484.52
6109608.48
6109774.18
6109981.97
6110232.28
6110525.6
6110862.49
6111243.58
6111669.55
6112141.14
6112659.09
6113224.21
6113837.3
6114499.17
6115210.59
6115972.35
6116785.13
6117649.58
6118566.24
6119535.53
6120557.73
6121632.95
6122761.07
6123941.75
6125174.37
6126457.99
6127791.31
6129172.66
6130599.89
6132070.42
6133581.09
6135128.22
6136707.48
6138313.93
6139941.93
6141585.13
6143236.46
6144888.11
6146514.34
6148104.82
6149648.36
6151132.9
6152545.71
6153873.45
6155102.42
6156218.91
6157209.53
6158061.38
6158762.42
6159302.45
6159705.75
6159971.18
6160103.08
6160112.78
6160020.25
6159855.83
6159409.47
6159890.4
6110612.52
6110656.24
6110743.79
6110875.32
6111051.1
6111271.44
6111536.75
6111847.48
6112204.15
6112607.34
6113057.67
6113555.81
6114102.44
6114698.28
6115344.04
6116040.42
6116788.11
6117587.74
6118439.89
6119345.07
6120303.65
6121315.91
6122381.96
6123501.72
6124674.91
6125900.99
6127179.14
6128508.23
6129886.78
6131312.89
6132784.26
6134298.09
6135851.08
6137439.37
6139058.52
6140703.46
6142368.46
6144047.1
6145732.28
6147399.49
6149039.17
6150640.93
6152193.52
6153684.96
6155102.59
6156433.24
6157663.43
6158779.72
6159768.79
6160617.55
6161313.8
6161876.12
6162300.86
6162588.02
6162742.7
6162776.56
6162709.41
6162570.77
6162156.24
6162648.36
6111813.47
6111859.24
6111950.86
6112088.49
6112272.36
6112502.78
6112780.09
6113104.72
6113477.14
6113897.87
6114367.46
6114886.51
6115455.61
6116075.4
6116746.47
6117469.43
6118244.84
6119073.21
6119954.98
6120890.5
6121880.01
6122923.63
6124021.28
6125172.71
6126377.47
6127634.84
6128943.81
6130303.06
6131710.93
6133165.37
6134663.89
6136203.56
6137780.97
6139392.16
6141032.65
6142697.39
6144380.75
6146076.51
6147761.35
6149426.4
6151062.04
6152657.87
6154202.79
6155684.99
6157092.16
6158411.5
6159630.17
6160735.39
6161714.41
6162554.91
6163245.75
6163806.39
6164233.17
6164526.35
6164691.35
6164739.97
6164691.94
6164576.37
6164193.16
6164686.46
6112975.93
6113023.33
6113118.22
6113260.73
6113451.08
6113689.52
6113976.39
6114312.05
6114696.93
6115131.47
6115616.16
6116151.51
6116738.05
6117376.28
6118066.72
6118809.86
6119606.11
6120455.88
6121359.46
6122317.05
6123328.74
6124394.47
6125514.02
6126686.95
6127912.63
6129190.14
6130518.31
6131895.63
6133320.23
6134789.86
6136301.86
6137853.08
6139439.91
6141058.17
6142703.15
6144369.51
6146051.32
6147741.96
6149418.07
6151071.24
6152692.24
6154271.05
6155796.94
6157258.55
6158644
6159941.13
6161137.76
6162221.61
6163180.51
6164002.87
6164678.29
6165226.53
6165644.48
6165932.81
6166097.15
6166149.29
6166108.53
6166003.05
6165635.28
6166128.65
6114114.18
6114162.89
6114260.39
6114406.79
6114602.29
6114847.12
6115141.57
6115485.94
6115880.61
6116325.96
6116822.41
6117370.39
6117970.31
6118622.61
6119327.68
6120085.89
6120897.56
6121762.94
6122682.18
6123655.36
6124682.41
6125763.11
6126897.08
6128083.73
6129322.27
6130611.62
6131950.44
6133337.08
6134769.53
6136245.41
6137761.94
6139315.89
6140903.57
6142520.78
6144162.82
6145824.42
6147499.76
6149167.16
6150818.75
6152445.96
6154039.54
6155589.55
6157085.46
6158516.18
6159870.24
6161136.04
6162301.91
6163356.06
6164286.92
6165083.59
6165736.41
6166265.38
6166667.91
6166945.08
6167102.78
6167152.75
6167113.94
6167013.71
6166656.51
6167146.74
6115242.84
6115292.59
6115392.16
6115541.67
6115741.26
6115991.15
6116291.56
6116642.78
6117045.1
6117498.85
6118004.38
6118562.01
6119172.09
6119834.94
6120550.86
6121320.09
6122142.84
6123019.22
6123949.26
6124932.89
6125969.9
6127059.92
6128202.42
6129396.66
6130641.7
6131936.31
6133279.03
6134668.04
6136101.25
6137576.16
6139089.92
6140639.25
6142220.46
6143829.39
6145461.44
6147111.56
6148759.29
6150397.37
6152017.9
6153612.35
6155171.57
6156685.81
6158144.8
6159537.79
6160853.8
6162081.82
6163210.65
6164229.05
6165126.2
6165892.09
6166517.97
6167023.97
6167407.79
6167670.83
6167819.09
6167864.27
6167824.95
6167727.67
6167378.45
6167863.69
6116375.77
6116426.36
6116527.57
6116679.52
6116882.34
6117136.19
6117441.27
6117797.81
6118206.05
6118666.24
6119178.65
6119743.53
6120361.15
6121031.71
6121755.41
6122532.38
6123362.7
6124246.36
6125183.26
6126173.18
6127215.78
6128310.53
6129456.76
6130653.57
6131899.86
6133194.25
6134535.11
6135920.49
6137348.11
6138815.33
6140319.11
6141856.02
6143422.15
6145013.14
6146624.12
6148249.69
6149869.48
6151476.58
6153063.42
6154621.73
6156142.64
6157616.7
6159033.92
6160383.95
6161656.25
6162840.09
6163924.48
6164898.45
6165751.39
6166473.4
6167080.39
6167568.72
6167937.18
6168188.03
6168327.82
6168368.48
6168328.41
6168233.5
6167891.03
6168370.39
6117525.58
6117576.81
6117679.31
6117833.17
6118038.49
6118295.4
6118604.07
6118964.66
6119377.36
6119842.36
6120359.84
6120930
6121552.98
6122228.91
6122957.87
6123739.88
6124574.92
6125462.83
6126403.41
6127396.28
6128440.98
6129536.84
6130683.06
6131878.59
6133122.2
6134412.4
6135747.42
6137125.22
6138543.42
6139999.33
6141489.88
6143011.64
6144560.78
6146133.1
6147723.97
6149314.36
6150897.71
6152466.93
6154014.35
6155531.76
6157010.41
6158441.08
6159814.08
6161119.45
6162347.32
6163487.32
6164528.96
6165461.96
6166276.51
6166963.66
6167539.93
6168001.74
6168348.17
6168581.72
6168709.11
6168742.17
6168698.92
6168604.46
6168267.31
6168739.74
6118703.36
6118755.08
6118858.56
6119013.85
6119221.05
6119480.25
6119791.57
6120155.13
6120571.06
6121039.48
6121560.5
6122134.23
6122760.72
6123440.02
6124172.1
6124956.87
6125794.18
6126683.78
6127625.31
6128618.29
6129662.11
6130755.97
6131898.91
6133089.78
6134327.18
6135609.49
6136934.8
6138300.92
6139705.36
6141145.26
6142617.41
6144118.23
6145643.7
6147189.39
6148750.42
6150307.88
6151855.59
6153386.74
6154893.96
6156369.35
6157804.46
6159190.43
6160518.06
6161778
6162960.66
6164056.13
6165054.51
6165946.18
6166722
6167373.69
6167918.02
6168351.93
6168674.96
6168889.94
6169003.73
6169028.09
6168980.66
6168885.74
6168553.14
6169018.01
6119918.73
6119970.8
6120074.98
6120231.3
6120439.83
6120700.63
6121013.78
6121379.35
6121797.4
6122268.01
6122791.21
6123367.02
6123995.41
6124676.33
6125409.66
6126195.2
6127032.69
6127921.76
6128861.94
6129852.62
6130893.06
6131982.37
6133119.44
6134303.01
6135531.57
6136803.39
6138116.48
6139468.59
6140857.14
6142279.28
6143731.83
6145211.25
6146713.69
6148234.95
6149757.35
6151275
6152781.54
6154270.11
6155733.4
6157163.61
6158552.52
6159891.57
6161172
6162384.89
6163520.96
6164570.77
6165524.99
6166374.59
6167111.1
6167726.89
6168238.9
6168644.61
6168943.98
6169140.14
6169240.09
6169255.49
6169203.56
6169107.83
6168779.33
6169236.29
6121179.94
6121232.25
6121336.86
6121493.83
6121703.18
6121964.95
6122279.17
6122645.86
6123065.05
6123536.71
6124060.84
6124637.35
6125266.16
6125947.11
6126679.97
6127464.46
6128300.2
6129186.71
6130123.4
6131109.55
6132144.29
6133226.6
6134355.26
6135528.86
6136745.79
6138004.17
6139301.89
6140636.57
6142005.5
6143405.68
6144833.79
6146286.12
6147758.62
6149246.85
6150733.3
6152212.39
6153678.03
6155123.64
6156542.16
6157926.11
6159267.57
6160558.3
6161790.32
6162954.88
6164043.09
6165046.07
6165955.09
6166761.84
6167458.55
6168038.42
6168518.48
6168896.55
6169172.89
6169350.85
6169437.48
6169444.31
6169388.14
6169291.69
6168967.13
6169416.03
6122494.09
6122546.5
6122651.32
6122808.57
6123018.27
6123280.4
6123594.97
6123961.95
6124381.3
6124852.97
6125376.84
6125952.78
6126580.62
6127260.1
6127990.92
6128772.69
6129604.93
6130487.07
6131418.39
6132398.09
6133425.18
6134498.52
6135616.81
6136778.55
6137982.01
6139225.26
6140506.11
6141822.1
6143170.53
6144548.36
6145952.27
6147378.63
6148823.45
6150270.43
6151714.31
6153149.4
6154569.59
6155968.33
6157338.64
6158673.18
6159964.33
6161204.33
6162385.07
6163498.09
6164534.8
6165486.62
6166345.12
6167102.2
6167750.28
6168303.29
6168758.25
6169113.85
6169371.06
6169533.75
6169609.25
6169609.08
6169549.73
6169453.22
6169132.77
6169573.7
6123867.3
6123919.69
6124024.48
6124181.65
6124391.21
6124653.11
6124967.32
6125333.77
6125752.35
6126222.96
6126745.42
6127319.52
6127945.01
6128621.55
6129348.76
6130126.14
6130953.13
6131829.05
6132753.1
6133724.36
6134741.75
6135804.05
6136909.85
6138057.56
6139245.4
6140471.35
6141733.2
6143028.46
6144354.41
6145708.07
6147086.19
6148485.25
6149889.8
6151294.96
6152695.47
6154085.66
6155459.49
6156810.54
6158132.01
6159416.83
6160657.8
6161847.4
6162977.76
6164040.82
6165028.46
6165932.66
6166745.59
6167459.82
6168068.55
6168586.18
6169009.8
6169338.39
6169573.18
6169718.2
6169780.81
6169772.35
6169708.86
6169611.56
6169294.82
6169727.5
6125304.94
6125357.2
6125461.71
6125618.45
6125827.4
6126088.48
6126401.61
6126766.69
6127183.57
6127652.06
6128171.94
6128742.93
6129364.68
6130036.8
6130758.8
6131530.1
6132350.03
6133217.83
6134132.59
6135093.28
6136098.72
6137147.58
6138238.34
6139369.3
6140538.57
6141744.02
6142983.31
6144253.82
6145552.72
6146876.86
6148222.82
6149586.87
6150953.72
6152318.73
6153676.86
6155022.69
6156350.39
6157653.79
6158926.42
6160161.64
6161352.56
6162491.88
6163572.09
6164585.57
6165524.7
6166381.95
6167150.08
6167822.21
6168392.15
6168874.42
6169266.6
6169568.02
6169780.24
6169907.44
6169957.02
6169940.12
6169872.3
6169774.01
6169460.84
6169885.11
6126811.85
6126863.86
6126967.86
6127123.82
6127331.68
6127591.35
6127902.71
6128265.62
6128679.87
6129145.23
6129661.4
6130228.05
6130844.77
6131511.06
6132226.37
6132990.05
6133801.34
6134659.37
6135563.16
6136511.6
6137503.43
6138537.21
6139611.37
6140724.14
6141873.55
6143057.44
6144273.42
6145518.88
6146790.97
6148086.59
6149402.4
6150724.06
6152047.22
6153367.17
6154678.87
6155976.94
6157255.66
6158509.04
6159730.94
6160914.98
6162054.39
6163142.16
6164171.15
6165134.17
6166024.07
6166833.88
6167556.92
6168186.96
6168718.44
6169165.99
6169527.5
6169802.59
6169993.03
6170103.16
6170140.33
6170115.46
6170043.66
6169944.56
6169634.95
6170050.8
6128392.44
6128444.07
6128547.32
6128702.14
6128908.44
6129166.11
6129475
6129834.91
6130245.61
6130706.81
6131218.15
6131779.24
6132389.6
6133048.67
6133755.83
6134510.33
6135311.36
6136157.97
6137049.1
6137983.55
6138960
6139976.94
6141032.73
6142125.55
6143253.37
6144413.99
6145605
6146823.77
6148067.43
6149332.92
6150606.68
6151884.7
6153162.64
6154435.84
6155699.34
6156947.83
6158175.79
6159377.51
6160547.04
6161678.05
6162763.94
6163797.95
6164773.23
6165682.87
6166520.01
6167277.96
6167950.28
6168530.92
6169032.09
6169451.26
6169787.04
6170039.67
6170211.37
6170306.76
6170333.31
6170301.8
6170226.94
6170127.63
6169821.76
6170229.31
6130050.74
6130101.89
6130204.14
6130357.44
6130561.69
6130816.76
6131122.45
6131478.53
6131884.73
6132340.7
6132846.05
6133400.32
6134002.96
6134653.36
6135350.83
6136094.55
6136883.64
6137717.09
6138593.75
6139512.38
6140471.56
6141469.75
6142505.25
6143576.17
6144680.46
6145815.89
6146980.01
6148170.18
6149383.57
6150607.34
6151837.79
6153070.92
6154302.45
6155527.79
6156742.06
6157940.17
6159116.91
6160266.74
6161383.77
6162461.91
6163494.85
6164476.2
6165399.48
6166258.24
6167046.09
6167756.86
6168384.66
6168924.14
6169387.84
6169773.34
6170079.5
6170306.81
6170457.69
6170536.84
6170551.65
6170512.67
6170434.1
6170334.09
6170031.71
6170430.77
6131790.66
6131841.18
6131942.18
6132093.59
6132295.3
6132547.13
6132848.87
6133200.26
6133600.97
6134050.62
6134548.78
6135094.91
6135688.43
6136328.67
6137014.86
6137746.14
6138521.55
6139340.02
6140200.35
6141101.23
6142041.2
6143018.66
6144031.84
6145078.85
6146157.59
6147265.8
6148401.04
6149560.67
6150732.52
6151913.17
6153098.95
6154285.88
6155469.77
6156646.1
6157809.95
6158957.06
6160082.02
6161179.37
6162243.46
6163268.46
6164248.39
6165177.21
6166048.82
6166857.2
6167596.4
6168260.72
6168844.78
6169343.69
6169770.11
6170122.01
6170398.61
6170600.65
6170730.74
6170793.67
6170796.74
6170750.24
6170667.89
6170567.05
6170268.05
6170658.51
6133616.1
6133665.87
6133765.36
6133914.5
6134113.13
6134361.08
6134658.11
6135003.92
6135398.14
6135840.36
6136330.09
6136866.75
6137449.72
6138078.25
6138751.54
6139468.67
6140228.62
6141030.26
6141872.35
6142753.52
6143672.26
6144626.93
6145615.74
6146636.75
6147687.84
6148766.75
6149871.04
6150989.11
6152117.82
6153253.76
6154393.27
6155532.47
6156667.23
6157793.31
6158906.25
6160001.25
6161073.28
6162117.1
6163127.29
6164098.32
6165024.53
6165900.24
6166719.73
6167477.41
6168167.8
6168785.68
6169326.22
6169785.07
6170174.95
6170494.12
6170742.04
6170919.7
6171029.83
6171077.26
6171069.19
6171015.64
6170929.82
6170828.31
6170532.69
6170914.52
6135531.27
6135580.16
6135677.88
6135824.34
6136019.39
6136262.82
6136554.37
6136893.7
6137280.42
6137714.08
6138194.13
6138719.99
6139290.95
6139906.23
6140564.99
6141266.24
6142008.94
6142791.89
6143613.8
6144473.28
6145368.76
6146298.58
6147260.92
6148253.82
6149275.15
6150322.64
6151385.26
6152460.07
6153543.93
6154633.46
6155725.05
6156814.91
6157899.24
6158973.79
6160034.1
6161075.47
6162093.05
6163081.78
6164036.48
6164951.84
6165822.45
6166642.9
6167407.76
6168111.69
6168749.47
6169316.14
6169807.05
6170233.05
6170592.16
6170883.22
6171106.19
6171262.46
6171355.03
6171388.85
6171371.12
6171311.6
6171223.07
6171121.38
6170829.26
6171202.57
6137540.93
6137588.81
6137684.51
6137827.92
6138018.88
6138257.16
6138542.47
6138874.45
6139252.69
6139676.69
6140145.88
6140659.61
6141217.16
6141817.7
6142460.33
6143144.03
6143867.71
6144630.14
6145429.99
6146265.81
6147136.03
6148038.96
6148972.74
6149935.43
6150924.9
6151930.6
6152949.83
6153979.68
6155017.03
6156058.45
6157100.84
6158140.41
6159173.22
6160195.15
6161201.87
6162188.88
6163151.53
6164085.01
6164984.39
6165844.66
6166660.77
6167427.63
6168140.22
6168793.62
6169383.07
6169904.1
6170352.61
6170739.7
6171063.51
6171323.09
6171518.64
6171651.71
6171725.4
6171744.66
6171716.53
6171650.5
6171558.8
6171456.56
6171167.74
6171532.37
6139650.67
6139697.43
6139790.87
6139930.88
6140117.3
6140349.86
6140628.26
6140952.13
6141321.01
6141734.38
6142191.63
6142692.09
6143234.99
6143819.47
6144444.57
6145109.26
6145812.38
6146552.67
6147328.75
6148139.12
6148982.18
6149856.16
6150759.19
6151689.34
6152636.57
6153598.41
6154572.17
6155554.99
6156544.05
6157536.1
6158527.71
6159515.25
6160494.92
6161462.74
6162414.54
6163346.03
6164252.76
6165130.17
6165973.6
6166778.35
6167539.67
6168252.86
6168913.27
6169516.4
6170057.93
6170533.86
6170940.57
6171289.21
6171578.16
6171806.73
6171975.33
6172085.64
6172140.87
6172145.9
6172107.65
6172035.27
6171940.5
6171837.71
6171552.11
6171907.99
6141866.94
6141912.47
6142003.47
6142139.8
6142321.29
6142547.68
6142818.64
6143133.78
6143492.62
6143894.64
6144339.2
6144825.61
6145353.08
6145920.73
6146527.61
6147172.64
6147854.66
6148572.43
6149324.55
6150109.56
6150925.84
6151771.81
6152638.18
6153522.87
6154423.53
6155337.69
6156262.74
6157195.82
6158133.91
6159073.81
6160012.13
6160945.34
6161869.73
6162781.43
6163676.43
6164550.59
6165399.65
6166219.25
6167004.96
6167752.29
6168456.76
6169113.9
6169719.31
6170268.75
6170758.12
6171183.62
6171554.91
6171870.26
6172128.57
6172329.57
6172474.02
6172563.86
6172602.44
6172594.72
6172547.46
6172469.56
6172372.28
6172269.27
6171986.93
6172334.1
6144196.88
6144241.09
6144329.43
6144461.78
6144637.95
6144857.67
6145120.6
6145426.34
6145774.4
6146164.25
6146595.23
6147066.65
6147577.69
6148127.48
6148715.05
6149339.34
6149999.17
6150693.3
6151420.37
6152179
6152960.56
6153763.26
6154585.12
6155424.02
6156277.6
6157143.39
6158018.73
6158900.81
6159786.66
6160673.16
6161557.03
6162434.84
6163303.01
6164157.83
6164995.48
6165812.01
6166603.38
6167365.48
6168094.16
6168785.23
6169434.52
6170037.92
6170591.41
6171091.13
6171533.43
6171914.97
6172245.6
6172523.72
6172748.42
6172919.64
6173038.31
6173106.5
6173127.58
6173106.44
6173049.68
6172965.84
6172865.7
6172762.18
6172482.9
6172821.21
6146649.78
6146692.55
6146778.02
6146906.05
6147076.45
6147288.94
6147543.18
6147838.75
6148175.16
6148551.85
6148968.18
6149423.43
6149916.8
6150447.4
6151014.27
6151616.35
6152252.5
6152921.56
6153615.46
6154332.74
6155071.66
6155830.33
6156606.73
6157398.71
6158203.95
6159020.01
6159844.28
6160674.01
6161506.32
6162338.17
6163166.41
6163987.71
6164798.67
6165595.74
6166375.28
6167133.56
6167866.77
6168571.05
6169242.52
6169877.31
6170471.56
6171021.51
6171523.51
6171974.07
6172369.97
6172708.25
6172998.8
6173240.26
6173431.94
6173573.97
6173667.44
6173714.5
6173718.55
6173684.38
6173618.41
6173528.84
6173425.92
6173321.89
6173045.95
6173375.33
6149239.76
6149281
6149363.41
6149486.84
6149651.08
6149855.85
6150100.78
6150385.45
6150709.35
6151071.88
6151472.38
6151910.09
6152384.01
6152893.59
6153437.8
6154015.75
6154619.86
6155248.89
6155901.38
6156575.73
6157270.23
6157982.99
6158712.03
6159455.21
6160210.26
6160974.78
6161746.22
6162521.9
6163299.02
6164074.66
6164845.74
6165609.1
6166361.46
6167099.43
6167819.55
6168518.26
6169191.97
6169837.04
6170449.79
6171026.6
6171563.84
6172057.99
6172505.62
6172903.48
6173248.53
6173549.43
6173804.79
6174013.66
6174175.73
6174291.44
6174362.09
6174389.99
6174378.6
6174332.69
6174258.48
6174163.87
6174058.63
6173954.32
6173683.71
6174004.15
6151988.2
6152028
6152107.5
6152226.57
6152384.97
6152582.38
6152818.42
6153092.66
6153404.67
6153753.98
6154140.12
6154562.61
6155014.66
6155495.51
6156004.2
6156539.61
6157100.4
6157685.15
6158292.29
6158920.19
6159567.06
6160231
6160910.01
6161601.95
6162304.58
6163015.51
6163732.26
6164452.22
6165172.67
6165890.77
6166603.6
6167308.1
6168001.16
6168679.57
6169340.05
6169979.28
6170593.88
6171180.47
6171735.68
6172256.15
6172738.61
6173179.88
6173576.9
6173926.83
6174227.06
6174486.39
6174703.51
6174877.61
6175008.55
6175096.9
6175144.06
6175152.4
6175125.34
6175067.53
6174984.98
6174885.24
6174777.57
6174672.86
6174407.47
6174718.87
6154916.17
6154955.06
6155032.8
6155149.39
6155304.77
6155498.9
6155725.79
6155985.21
6156276.76
6156599.89
6156953.94
6157338.04
6157751.21
6158192.37
6158660.33
6159153.83
6159671.49
6160211.86
6160773.36
6161354.31
6161952.92
6162567.32
6163195.5
6163835.37
6164484.7
6165141.18
6165802.39
6166465.79
6167128.76
6167788.57
6168442.42
6169087.39
6169720.51
6170338.75
6170939.01
6171518.14
6172072.98
6172600.36
6173097.12
6173560.14
6173986.36
6174372.82
6174716.69
6175015.32
6175276.5
6175498.94
6175681.68
6175824.26
6175926.8
6175990.1
6176015.74
6176006.14
6175964.75
6175896.13
6175806.09
6175701.84
6175592.16
6175487.27
6175227.21
6175529.57
6158010.65
6158044.62
6158112.44
6158213.91
6158348.7
6158516.38
6158716.38
6158948.1
6159210.84
6159503.83
6159826.24
6160177.15
6160555.55
6160960.35
6161390.35
6161844.29
6162320.81
6162818.43
6163335.61
6163870.7
6164421.93
6164987.47
6165565.37
6166153.58
6166749.96
6167352.28
6167958.21
6168565.32
6169171.11
6169772.99
6170368.29
6170954.27
6171528.15
6172087.08
6172628.17
6173148.51
6173645.19
6174115.3
6174555.97
6174964.38
6175337.8
6175673.61
6175969.34
6176222.72
6176441.7
6176625.04
6176771.95
6176882.12
6176955.82
6176993.96
6176998.17
6176970.9
6176915.54
6176836.5
6176739.33
6176630.9
6176519.47
6176414.6
6176159.97
6176453.32
6161091.87
6161122.92
6161184.92
6161277.71
6161401.02
6161554.52
6161737.77
6161950.24
6162191.34
6162460.37
6162756.54
6163078.99
6163426.77
6163798.82
6164194.02
6164611.14
6165048.85
6165505.76
6165980.36
6166471.07
6166976.19
6167493.95
6168022.48
6168559.83
6169103.95
6169652.7
6170203.88
6170755.17
6171304.21
6171848.54
6172385.67
6172913.02
6173427.96
6173927.85
6174409.99
6174871.68
6175310.22
6175722.91
6176107.1
6176460.21
6176779.7
6177063.19
6177308.41
6177522.45
6177704.17
6177852.7
6177967.54
6178048.68
6178096.59
6178112.37
6178097.79
6178055.36
6177988.46
6177901.4
6177799.58
6177689.55
6177579.16
6177477.43
6177231.83
6177520.4
6164247.15
6164275.65
6164332.56
6164417.73
6164530.91
6164671.78
6164839.93
6165034.86
6165256.01
6165502.7
6165774.19
6166069.66
6166388.19
6166728.77
6167090.32
6167471.67
6167871.55
6168288.61
6168721.43
6169168.47
6169628.14
6170098.74
6170578.5
6171065.55
6171557.98
6172053.75
6172550.79
6173046.93
6173539.95
6174027.57
6174507.45
6174977.2
6175434.42
6175876.66
6176301.45
6176706.33
6177088.86
6177446.62
6177777.24
6178078.42
6178347.98
6178583.83
6178784.07
6178955.9
6179098.26
6179210.44
6179292.09
6179343.33
6179364.77
6179357.56
6179323.52
6179265.14
6179185.71
6179089.38
6178981.29
6178867.62
6178755.73
6178653.99
6178413.63
6178692.86
6167511.61
6167537.61
6167589.53
6167667.2
6167770.41
6167898.84
6168052.1
6168229.71
6168431.12
6168655.7
6168902.73
6169171.42
6169460.88
6169770.16
6170098.22
6170443.94
6170806.11
6171183.44
6171574.57
6171978.06
6172392.38
6172815.93
6173247.03
6173683.93
6174124.8
6174567.75
6175010.82
6175452
6175889.2
6176320.3
6176743.14
6177155.49
6177555.14
6177939.83
6178307.29
6178655.27
6178981.54
6179283.9
6179560.2
6179808.37
6180026.43
6180212.51
6180373.12
6180507.28
6180614.2
6180693.42
6180744.83
6180768.72
6180765.86
6180737.52
6180685.56
6180612.47
6180521.48
6180416.58
6180302.67
6180185.59
6180072.24
6179970.42
6179735.13
6180004.88
6170904.94
6170928.43
6170975.32
6171045.47
6171138.66
6171254.6
6171392.9
6171553.12
6171734.72
6171937.1
6172159.58
6172401.39
6172661.7
6172939.6
6173234.1
6173544.13
6173868.54
6174206.13
6174555.6
6174915.58
6175284.65
6175661.28
6176043.9
6176430.88
6176820.5
6177211
6177600.54
6177987.27
6178369.25
6178744.51
6179111.05
6179466.84
6179809.83
6180137.96
6180449.16
6180741.37
6181012.58
6181260.79
6181484.07
6181680.55
6181848.47
6181993.81
6182115.59
6182213.01
6182285.52
6182332.86
6182355.11
6182352.73
6182326.6
6182278.09
6182209.07
6182122.04
6182020.12
6181907.16
6181787.8
6181667.55
6181552.86
6181450.95
6181220.69
6181480.87
6174441.74
6174462.7
6174504.54
6174567.14
6174650.27
6174753.66
6174876.95
6175019.71
6175181.43
6175361.55
6175559.42
6175774.32
6176005.46
6176251.97
6176512.93
6176787.33
6177074.1
6177372.09
6177680.1
6177996.85
6178320.99
6178651.13
6178985.79
6179323.46
6179662.56
6180001.46
6180338.47
6180671.88
6180999.93
6181320.82
6181632.75
6181933.86
6182222.33
6182496.3
6182753.94
6182993.44
6183213.01
6183410.92
6183585.52
6183735.22
6183858.54
6183961.57
6184043.42
6184103.43
6184141.2
6184156.61
6184149.86
6184121.51
6184072.52
6184004.27
6183918.66
6183818.11
6183705.64
6183584.9
6183460.29
6183336.97
6183220.95
6183118.9
6182893.57
6183144.07
6178135.47
6178153.9
6178190.7
6178245.73
6178318.79
6178409.63
6178517.9
6178643.21
6178785.07
6178942.96
6179116.26
6179304.3
6179506.34
6179721.57
6179949.13
6180188.06
6180437.38
6180696.02
6180962.85
6181236.69
6181516.29
6181800.36
6182087.54
6182376.43
6182665.58
6182953.49
6183238.63
6183519.41
6183794.25
6184061.51
6184319.55
6184566.7
6184801.3
6185021.7
6185226.26
6185413.34
6185581.38
6185728.83
6185854.24
6185956.21
6186040.3
6186105.75
6186151.91
6186178.34
6186184.84
6186171.45
6186138.54
6186086.77
6186017.18
6185931.23
6185830.78
6185718.22
6185596.45
6185468.97
6185339.91
6185214.09
6185097.11
6184995.11
6184774.77
6185015.55
6182000.57
6182016.49
6182048.27
6182095.78
6182158.85
6182237.23
6182330.6
6182438.58
6182560.74
6182696.58
6182845.52
6183006.96
6183180.19
6183364.47
6183558.98
6183762.88
6183975.22
6184195.03
6184421.26
6184652.84
6184888.62
6185127.4
6185367.95
6185608.98
6185849.18
6186087.19
6186321.6
6186551
6186773.95
6186988.96
6187194.58
6187389.31
6187571.68
6187740.21
6187893.45
6188029.98
6188148.41
6188247.42
6188325.73
6188388.53
6188435.1
6188464.8
6188477.17
6188471.96
6188449.12
6188408.84
6188351.59
6188278.15
6188189.6
6188087.43
6187973.49
6187850.09
6187720.03
6187586.61
6187453.72
6187325.86
6187208.2
6187106.37
6186891.05
6187122.03
6186053.76
6186067.21
6186094.05
6186134.17
6186187.4
6186253.5
6186332.2
6186423.15
6186525.94
6186640.1
6186765.13
6186900.43
6187045.39
6187199.32
6187361.47
6187531.05
6187707.21
6187889.06
6188075.65
6188266
6188459.05
6188653.74
6188848.94
6189043.49
6189236.2
6189425.85
6189611.18
6189790.93
6189963.81
6190128.5
6190283.71
6190428.12
6190560.43
6190679.35
6190783.62
6190871.99
6190943.29
6190996.37
6191036.09
6191061.77
6191072.84
6191068.84
6191049.48
6191014.64
6190964.44
6190899.17
6190819.41
6190726.01
6190620.11
6190503.17
6190377.03
6190243.93
6190106.53
6189967.94
6189831.81
6189702.31
6189584.21
6189482.67
6189272.35
6189493.48
6190314.93
6190325.97
6190347.98
6190380.89
6190424.52
6190478.67
6190543.07
6190617.42
6190701.33
6190794.4
6190896.15
6191006.05
6191123.53
6191247.97
6191378.7
6191514.99
6191656.09
6191801.19
6191949.43
6192099.92
6192251.73
6192403.89
6192555.4
6192705.22
6192852.3
6192995.55
6193133.86
6193266.1
6193391.15
6193507.85
6193615.07
6193711.66
6193796.49
6193868.46
6193926.46
6193969.46
6193996.45
6194012
6194015.51
6194006.45
6193984.37
6193949.01
6193900.21
6193838.01
6193762.62
6193674.46
6193574.18
6193462.67
6193341.11
6193210.96
6193074.01
6192932.4
6192788.65
6192645.71
6192506.96
6192376.25
6192257.98