/*--------------------------------*- C++ -*----------------------------------*\
  =========                 |
  \\      /  F ield         | OpenFOAM: The Open Source CFD Toolbox
   \\    /   O peration     | Website:  https://openfoam.org
    \\  /    A nd           | Version:  11
     \\/     M anipulation  |
\*---------------------------------------------------------------------------*/
FoamFile
{
    format      ascii;
    class       volScalarField;
    location    "1.26739e-05";
    object      rho.gas;
}
// * * * * * * * * * * * * * * * * * * * * * * * * * * * * * * * * * * * * * //

dimensions      [1 -3 0 0 0 0 0];

internalField   nonuniform List<scalar> 
120000
(
248.15543
248.15641
248.158372
248.161325
248.165285
248.17027
248.176306
248.18342
248.191646
248.201022
248.211593
248.223406
248.236515
248.250979
248.266862
248.284232
248.303164
248.323738
248.346039
248.370157
248.396187
248.424229
248.454387
248.486773
248.521499
248.558682
248.598444
248.640909
248.686202
248.734449
248.785779
248.840316
248.898184
248.959502
249.024382
249.09293
249.165237
249.24138
249.321418
249.405384
249.493281
249.585071
249.680672
249.779938
249.882651
249.988504
250.097082
250.207851
250.320149
250.433195
250.546144
250.658208
250.768922
250.878661
250.989595
251.107408
251.244314
251.424302
251.664015
252.083982
248.3978
248.399886
248.404062
248.410347
248.418761
248.429334
248.442101
248.457107
248.4744
248.494036
248.516076
248.540587
248.567643
248.59732
248.629699
248.664864
248.702903
248.743903
248.787954
248.835142
248.885553
248.939266
248.996356
249.056888
249.120915
249.188477
249.259596
249.334272
249.412481
249.494169
249.579248
249.667591
249.759025
249.853326
249.950217
250.049356
250.150335
250.252673
250.355812
250.459118
250.561877
250.663305
250.762553
250.858727
250.950919
251.03825
251.119934
251.195372
251.264282
251.326881
251.38413
251.438062
251.492211
251.552166
251.626265
251.726457
251.827083
252.036408
252.280787
252.632323
248.627242
248.630373
248.636643
248.646072
248.658688
248.674527
248.693634
248.716061
248.741868
248.771123
248.803898
248.840272
248.880328
248.924152
248.971833
249.023459
249.07912
249.138899
249.202877
249.271127
249.343711
249.420678
249.502061
249.587871
249.678094
249.77269
249.871582
249.974654
250.081745
250.192643
250.307079
250.42472
250.545164
250.667932
250.792466
250.918118
251.044157
251.169758
251.29401
251.415919
251.534419
251.648391
251.756685
251.858159
251.95173
252.036437
252.111532
252.176584
252.231608
252.277225
252.315024
252.347815
252.379945
252.417693
252.427847
252.509192
252.642025
252.846996
253.086464
253.36407
248.863336
248.86742
248.875599
248.887895
248.90434
248.924974
248.949847
248.979019
249.012553
249.050524
249.093008
249.14009
249.191853
249.248386
249.309777
249.376109
249.447463
249.523914
249.605525
249.692346
249.784413
249.88174
249.984316
250.092102
250.205025
250.322973
250.445786
250.573259
250.705125
250.841058
250.980659
251.123459
251.268906
251.416363
251.565106
251.714321
251.863102
252.010459
252.155318
252.296537
252.432921
252.563244
252.68628
252.800846
252.905852
253.000361
253.083828
253.156211
253.218122
253.266674
253.303938
253.332986
253.358203
253.343922
253.390222
253.472728
253.607507
253.815014
254.059528
254.307018
249.104326
249.109254
249.119122
249.133953
249.15378
249.178646
249.208602
249.243706
249.284025
249.329632
249.380601
249.437014
249.498951
249.566495
249.639724
249.718712
249.803527
249.894225
249.99085
250.093427
250.201963
250.316437
250.436801
250.562969
250.694819
250.832181
250.974837
251.122511
251.274864
251.431493
251.591919
251.755587
251.92186
252.090018
252.259254
252.42868
252.597322
252.764136
252.928013
253.087795
253.242303
253.39036
253.530835
253.662688
253.785185
253.893744
253.988021
254.067954
254.133907
254.186815
254.228535
254.262091
254.250033
254.286386
254.343553
254.433814
254.577034
254.793035
255.047192
255.290693
249.344637
249.350297
249.361626
249.378647
249.401389
249.429891
249.464201
249.504373
249.55047
249.602559
249.660709
249.724992
249.795483
249.872251
249.955363
250.044879
250.140849
250.243309
250.352281
250.467766
250.589741
250.718153
250.852919
250.993917
251.140981
251.293899
251.452406
251.616175
251.784821
251.957887
252.134845
252.31509
252.49794
252.682632
252.868324
253.054097
253.238959
253.421856
253.601683
253.777298
253.947549
254.111297
254.267602
254.411583
254.542363
254.659126
254.761343
254.848875
254.922089
254.982032
255.030604
255.031022
255.071071
255.122646
255.195264
255.301255
255.456382
255.680307
255.945523
256.206877
249.579352
249.585636
249.598209
249.617083
249.642278
249.673826
249.711765
249.756146
249.807023
249.864454
249.928501
249.999227
250.076694
250.160958
250.25207
250.350074
250.455
250.566865
250.685666
250.811377
250.94395
251.083302
251.229318
251.381843
251.540676
251.70557
251.876222
252.052272
252.233297
252.418809
252.608247
252.800981
252.996306
253.193447
253.391556
253.58972
253.78697
253.98229
254.174633
254.362946
254.546197
254.719531
254.881847
255.032006
255.169024
255.292138
255.400889
255.495225
255.57565
255.643364
255.700381
255.708324
255.75855
255.821043
255.905072
256.022642
256.18905
256.423437
256.698778
256.970857
249.805611
249.812423
249.82604
249.846452
249.873666
249.9077
249.948589
249.996372
250.051098
250.112817
250.181579
250.257437
250.340437
250.430622
250.528027
250.632675
250.744577
250.863727
250.990099
251.123642
251.26428
251.411902
251.566364
251.727481
251.895021
252.068706
252.248202
252.433121
252.623011
252.817356
253.015573
253.217013
253.420954
253.626609
253.833127
254.039596
254.245053
254.448496
254.6489
254.845234
255.032679
255.210057
255.376235
255.530172
255.67098
255.797995
255.910864
256.009668
256.095059
256.168336
256.231601
256.245336
256.303317
256.374097
256.466697
256.592779
256.767156
257.008288
257.290982
257.569275
250.022578
250.029834
250.044312
250.065977
250.094815
250.130835
250.174063
250.224534
250.282287
250.347363
250.419802
250.499644
250.586919
250.681655
250.783869
250.893563
251.010729
251.135337
251.267338
251.406656
251.553187
251.706795
251.867308
252.034513
252.208151
252.387916
252.573449
252.764335
252.960101
253.16021
253.364065
253.571
253.78029
253.991145
254.202715
254.414102
254.624359
254.832508
255.037553
255.234801
255.42307
255.601195
255.768069
255.922682
256.064183
256.191942
256.305646
256.40541
256.491841
256.566124
256.590734
256.65115
256.71724
256.795954
256.896287
257.029713
257.210678
257.457055
257.744483
258.025555
250.230934
250.23856
250.253741
250.276406
250.306524
250.344096
250.389141
250.441688
250.501767
250.569411
250.644648
250.727502
250.817991
250.916123
251.021897
251.135298
251.256294
251.384833
251.520842
251.664221
251.814841
251.972541
252.137121
252.308343
252.485923
252.66953
252.858782
253.053244
253.252424
253.455772
253.662678
253.872475
254.084438
254.29779
254.511706
254.725323
254.937751
255.14809
255.351785
255.547656
255.734532
255.911282
256.076844
256.230275
256.3708
256.497884
256.611334
256.711388
256.798741
256.874687
256.900991
256.964933
257.035345
257.11903
257.2248
257.363869
257.550309
257.801471
258.093504
258.374097
250.432325
250.440254
250.455998
250.479449
250.510557
250.549317
250.595743
250.649858
250.711684
250.781242
250.858548
250.943613
251.036439
251.137017
251.245329
251.361337
251.48499
251.616214
251.754912
251.900961
252.054207
252.214464
252.381508
252.555075
252.734858
252.920501
253.1116
253.307697
253.50828
253.712779
253.920566
254.130958
254.343211
254.55653
254.770068
254.982934
255.194201
255.402913
255.604541
255.798035
255.982339
256.156427
256.319342
256.470243
256.60846
256.733583
256.845547
256.944667
257.031708
257.108049
257.134735
257.200528
257.273436
257.36015
257.469288
257.611758
257.801188
258.054296
258.347319
258.626501
250.628888
250.637063
250.653251
250.677307
250.709166
250.748816
250.796267
250.851534
250.914631
250.985568
251.06435
251.150974
251.245425
251.34768
251.4577
251.57543
251.700797
251.833708
251.974042
252.121656
252.276372
252.437984
252.606244
252.780868
252.961529
253.147854
253.339422
253.535763
253.736355
253.940622
254.147939
254.357624
254.568951
254.781144
254.993389
255.204837
255.414618
255.618466
255.815322
256.004124
256.183832
256.353456
256.512092
256.658967
256.793498
256.915378
257.024633
257.121638
257.207231
257.282862
257.30889
257.375448
257.449755
257.538389
257.649769
257.794504
257.985788
258.239733
258.532545
258.809171
250.822919
250.831288
250.84782
250.872332
250.904746
250.945043
250.993227
251.049306
251.113286
251.185167
251.264942
251.352592
251.448091
251.551396
251.662452
251.781186
251.907505
252.041295
252.182417
252.330706
252.485963
252.647961
252.816435
252.991081
253.171555
253.35747
253.548392
253.743843
253.943296
254.146177
254.351867
254.559701
254.768975
254.978953
255.18887
255.397951
255.602108
255.800306
255.991503
256.174665
256.348795
256.512956
256.666308
256.808153
256.938009
257.055679
257.161261
257.255205
257.338457
257.41258
257.437336
257.504128
257.57935
257.669425
257.782552
257.92903
258.121618
258.37583
258.66774
258.941123
251.016653
251.025173
251.041965
251.06681
251.099618
251.14036
251.189037
251.245648
251.310192
251.382657
251.463025
251.551265
251.647334
251.751175
251.862715
251.981864
252.108509
252.242517
252.38373
252.531962
252.686995
252.848582
253.016438
253.19024
253.369627
253.554194
253.743492
253.937027
254.13426
254.334603
254.537423
254.742041
254.947737
255.153749
255.359281
255.563506
255.762385
255.954984
256.140348
256.317525
256.485589
256.643674
256.791009
256.926968
257.051145
257.163375
257.263751
257.352713
257.431163
257.461167
257.526457
257.595228
257.672515
257.764746
257.880011
258.028379
258.222237
258.476547
258.767191
259.036957
251.212143
251.220777
251.237757
251.262834
251.295899
251.33692
251.385888
251.442797
251.507636
251.580386
251.661014
251.749478
251.845721
251.94967
252.061236
252.180312
252.306768
252.440454
252.581192
252.728778
252.882978
253.043526
253.210122
253.382428
253.560069
253.742632
253.929661
254.120658
254.315087
254.512368
254.711886
254.912989
255.114997
255.317206
255.518899
255.716255
255.908325
256.094151
256.272783
256.443291
256.604794
256.756479
256.897641
257.027736
257.14649
257.253788
257.349795
257.435054
257.510576
257.537848
257.602022
257.670446
257.748032
257.841051
257.957374
258.106758
258.301159
258.554967
258.843879
259.109642
251.411204
251.419919
251.437026
251.462246
251.495455
251.53661
251.585697
251.642703
251.707608
251.780383
251.860985
251.94936
252.045436
252.149127
252.260328
252.378916
252.504745
252.637646
252.777425
252.923861
253.076703
253.235667
253.400439
253.570665
253.745957
253.925888
254.10999
254.297757
254.488641
254.682055
254.877372
255.07393
255.271032
255.46795
255.663933
255.855216
256.04095
256.220266
256.392296
256.55619
256.711147
256.856438
256.991463
257.115803
257.229223
257.331684
257.42344
257.505114
257.577791
257.602311
257.665146
257.732915
257.810455
257.9039
258.020914
258.17095
258.365536
258.618507
258.905392
259.166903
251.615397
251.624164
251.641347
251.666634
251.699885
251.741048
251.790101
251.847026
251.911794
251.984367
252.064692
252.152702
252.248314
252.351428
252.461924
252.579665
252.704488
252.836211
252.974624
253.119491
253.270545
253.427492
253.590003
253.757716
253.930235
254.107128
254.287927
254.47213
254.659199
254.848565
255.039628
255.231764
255.424332
255.616679
255.805245
255.989171
256.167593
256.339649
256.504493
256.661319
256.809377
256.948009
257.076707
257.195133
257.303101
257.40064
257.488083
257.566127
257.635922
257.657644
257.719093
257.786142
257.863551
257.957315
258.074888
258.225418
258.42001
258.671951
258.956607
259.213706
251.826044
251.834839
251.852049
251.877334
251.910535
251.951591
252.000474
252.057155
252.121602
252.193766
252.273585
252.36098
252.455857
252.558103
252.667585
252.784152
252.907627
253.037812
253.174484
253.317391
253.466255
253.620766
253.780582
253.945331
254.114605
254.287962
254.464924
254.644981
254.827586
255.01216
255.198094
255.384747
255.571457
255.757541
255.939497
256.116559
256.287942
256.452858
256.610538
256.760247
256.901311
257.033141
257.155397
257.267762
257.370111
257.462563
257.545541
257.619836
257.686689
257.705647
257.765826
257.832295
257.909703
258.003888
258.12208
258.273116
258.46768
258.718515
259.000819
259.253413
252.044253
252.053052
252.070246
252.095465
252.128532
252.169374
252.217956
252.274244
252.338197
252.409759
252.488859
252.575408
252.669302
252.770415
252.878604
252.993704
253.115527
253.243862
253.378475
253.519103
253.665456
253.817217
253.974037
254.135538
254.301308
254.470907
254.64386
254.819665
254.997786
255.177664
255.358711
255.54032
255.721868
255.900062
256.074142
256.243333
256.40686
256.563957
256.713882
256.855937
256.989511
257.114119
257.229373
257.335
257.430905
257.517228
257.594389
257.663154
257.685255
257.74326
257.804051
257.871336
257.949765
258.045105
258.164422
258.316295
258.511018
258.760831
259.040749
259.288819
252.270947
252.279728
252.296864
252.321956
252.354806
252.395332
252.443488
252.499237
252.562529
252.633302
252.711476
252.796955
252.889622
252.989343
253.095964
253.209307
253.329176
253.455349
253.587581
253.725599
253.869107
254.01778
254.171265
254.329181
254.491118
254.656639
254.82528
254.99655
255.169937
255.344905
255.520907
255.697383
255.871188
256.041587
256.207836
256.369184
256.524886
256.674216
256.816481
256.951052
257.077407
257.195112
257.30382
257.403324
257.49361
257.574899
257.647696
257.712855
257.731454
257.787556
257.847182
257.913948
257.992388
258.088103
258.207937
258.360158
258.554646
258.80312
259.080449
259.323867
252.506905
252.515648
252.532686
252.557591
252.590146
252.630253
252.677862
252.732928
252.795396
252.865196
252.942242
253.026427
253.117627
253.215698
253.320475
253.431772
253.549379
253.673065
253.802575
253.937625
254.077911
254.223097
254.372821
254.526695
254.684302
254.845197
255.008907
255.174934
255.342755
255.511822
255.68157
255.851414
256.018261
256.181452
256.34031
256.494152
256.642299
256.784091
256.918913
257.046236
257.165605
257.27663
257.379025
257.472663
257.557605
257.634145
257.70286
257.764661
257.779908
257.83411
257.892501
257.958639
258.036955
258.132897
258.253083
258.405482
258.599561
258.846531
259.121137
259.35982
252.752798
252.761482
252.778384
252.803047
252.835229
252.874823
252.921769
252.976017
253.037507
253.106162
253.18189
253.264577
253.354092
253.450282
253.552974
253.661974
253.777065
253.898008
254.024539
254.156371
254.293193
254.434667
254.580431
254.730096
254.883248
255.03945
255.198241
255.359137
255.521636
255.685219
255.849354
256.011127
256.169892
256.324993
256.475768
256.621557
256.761715
256.895634
257.022779
257.142675
257.254895
257.359099
257.455071
257.542755
257.622287
257.694037
257.758657
257.817135
257.829124
257.881584
257.93891
258.004577
258.0829
258.17916
258.299751
258.452337
258.645978
258.891385
259.163189
259.39709
253.009199
253.017805
253.034534
253.058898
253.090635
253.129621
253.175792
253.22909
253.28945
253.356793
253.431019
253.512009
253.599626
253.69371
253.794083
253.900544
254.012869
254.130815
254.254113
254.382473
254.515581
254.653098
254.794663
254.939891
255.088374
255.239682
255.393366
255.548956
255.705967
255.863903
256.019989
256.17362
256.324172
256.471014
256.613512
256.75104
256.883
257.008856
257.128113
257.240307
257.345039
257.44201
257.531043
257.612112
257.685375
257.751207
257.810245
257.824142
257.87426
257.9267
257.984275
258.050466
258.129538
258.226655
258.348026
258.501041
258.69438
258.938283
259.20726
259.436382
253.276601
253.28511
253.301628
253.325639
253.356856
253.395142
253.440424
253.492639
253.55172
253.617581
253.690119
253.769212
253.854716
253.946467
254.044282
254.147955
254.257259
254.371946
254.491745
254.616365
254.74549
254.878784
255.015888
255.156423
255.299988
255.446163
255.594511
255.74458
255.895903
256.045841
256.193824
256.339269
256.481577
256.620147
256.754382
256.88371
257.007614
257.125596
257.237182
257.341953
257.439572
257.529804
257.612539
257.68782
257.755875
257.81715
257.872354
257.882402
257.930274
257.981171
258.037834
258.103657
258.182781
258.280203
258.401904
258.554978
258.747707
258.989853
259.255842
259.480095
253.555452
253.563844
253.580114
253.603716
253.634339
253.671831
253.71611
253.76711
253.824758
253.888968
253.959632
254.036624
254.119798
254.208986
254.304001
254.404634
254.510656
254.621818
254.737847
254.858451
254.983319
255.112116
255.244489
255.380065
255.518454
255.659248
255.802025
255.94635
256.089707
256.231564
256.371373
256.508573
256.642599
256.772882
256.898825
257.020048
257.136
257.246205
257.350236
257.447735
257.538424
257.622131
257.69881
257.768566
257.831687
257.888676
257.940289
257.946645
257.992314
258.041647
258.09734
258.162711
258.241782
258.339387
258.461284
258.614269
258.806236
259.04648
259.309366
259.528685
253.846194
253.854449
253.870433
253.893571
253.923526
253.96013
254.003294
254.052946
254.109011
254.1714
254.240003
254.314693
254.39532
254.481714
254.573688
254.671029
254.773509
254.880877
254.992863
255.109176
255.229508
255.35353
255.480896
255.611243
255.74419
255.879344
256.016299
256.152654
256.287912
256.42156
256.553072
256.681914
256.807557
256.929501
257.047259
257.160347
257.268297
257.370682
257.467132
257.557343
257.641097
257.718285
257.788923
257.853179
257.911405
257.964168
258.012284
258.01507
258.058717
258.106671
258.161567
258.226633
258.305765
258.403626
258.52575
258.678638
258.8698
259.108083
259.368538
259.582138
254.149317
254.157416
254.173077
254.195697
254.224912
254.260539
254.302477
254.350654
254.404989
254.465393
254.531755
254.603946
254.681815
254.765193
254.853889
254.947693
255.046376
255.14969
255.257365
255.369117
255.484642
255.603616
255.725704
255.850553
255.977795
256.107052
256.236029
256.364261
256.491269
256.61656
256.739634
256.859991
256.977183
257.090722
257.200126
257.304937
257.40473
257.499119
257.587775
257.670435
257.746924
257.817163
257.8812
257.939225
257.991596
258.038873
258.042166
258.082902
258.126085
258.173882
258.228932
258.294421
258.374161
258.472676
258.595297
258.748242
258.938685
259.175053
259.434768
259.640924
254.465418
254.473343
254.488647
254.5107
254.53911
254.573677
254.614292
254.660876
254.713349
254.771618
254.835574
254.905087
254.980006
255.060162
255.145364
255.235406
255.330058
255.429075
255.532194
255.639132
255.749594
255.863265
255.97982
256.098919
256.220211
256.341499
256.462353
256.582328
256.700965
256.817773
256.93238
257.044295
257.153052
257.258196
257.359288
257.455914
257.547697
257.634303
257.715454
257.790946
257.860659
257.924576
257.982802
258.035587
258.083352
258.126714
258.125943
258.164246
258.205657
258.252286
258.306701
258.371993
258.451843
258.550601
258.673373
258.826077
259.015543
259.249782
259.508648
259.707256
254.795257
254.802993
254.817913
254.839359
254.866914
254.900358
254.939572
254.984473
255.03498
255.091
255.152424
255.219122
255.290945
255.367725
255.449273
255.535382
255.625827
255.720363
255.818729
255.920648
256.025824
256.133947
256.244694
256.357751
256.471022
256.584118
256.696632
256.808137
256.918259
257.026558
257.132596
257.235935
257.336147
257.432813
257.525538
257.613954
257.69773
257.776582
257.850289
257.918697
257.981744
258.039469
258.092036
258.139752
258.183092
258.222728
258.218049
258.254036
258.29376
258.339282
258.3931
258.458206
258.538149
258.637108
258.759962
258.912334
259.100716
259.332719
259.590675
259.781657
255.139764
255.147301
255.161819
255.182635
255.209304
255.241588
255.279359
255.322531
255.371021
255.42474
255.483581
255.54742
255.616111
255.689493
255.767383
255.849583
255.935877
256.026031
256.119797
256.216913
256.317101
256.420097
256.523951
256.62833
256.732859
256.837166
256.940866
257.043555
257.144818
257.24424
257.341405
257.435901
257.527327
257.6153
257.699456
257.779463
257.855028
257.925905
257.991907
258.052918
258.108905
258.159936
258.206193
258.247994
258.285811
258.280621
258.313334
258.348411
258.387563
258.432855
258.486757
258.552195
258.632613
258.73204
258.855148
259.007277
259.194606
259.424362
259.681393
259.864703
255.499996
255.507322
255.521419
255.541578
255.567328
255.598413
255.634694
255.67608
255.722492
255.773842
255.830029
255.890934
255.956419
256.026329
256.100491
256.178716
256.2608
256.346521
256.435645
256.527948
256.621602
256.716319
256.811784
256.90766
257.003594
257.099216
257.194149
257.288008
257.380404
257.470948
257.559255
257.644946
257.727656
257.807039
257.882774
257.954572
258.022186
258.085418
258.14413
258.198257
258.247818
258.292932
258.333833
258.37089
258.404626
258.395084
258.425113
258.458136
258.495821
258.540177
258.593597
258.658906
258.739415
258.838979
258.962051
259.113679
259.299724
259.527038
259.78306
259.958593
255.877456
255.884558
255.89821
255.91768
255.942471
255.972305
256.007034
256.046563
256.090812
256.139698
256.193125
256.250979
256.313132
256.379438
256.449736
256.523848
256.601582
256.682752
256.76565
256.850041
256.935642
257.022155
257.109267
257.19665
257.283966
257.370868
257.456999
257.541999
257.625508
257.707166
257.786619
257.863525
257.937556
258.008406
258.075795
258.13948
258.199258
258.25498
258.306556
258.35397
258.397292
258.436691
258.472448
258.50498
258.534854
258.521136
258.548632
258.579721
258.616035
258.659525
258.712507
258.777703
258.858289
258.957948
259.080914
259.231949
259.416606
259.641373
259.896424
260.064096
256.274686
256.281556
256.294747
256.313508
256.337314
256.365865
256.398997
256.43661
256.478621
256.524946
256.57549
256.630138
256.688728
256.751193
256.817372
256.887132
256.958867
257.032384
257.10745
257.183815
257.26121
257.339351
257.417942
257.496673
257.575224
257.653268
257.730472
257.806502
257.881023
257.953704
258.024222
258.092268
258.157546
258.219786
258.278744
258.334211
258.386023
258.434063
258.478276
258.518674
258.555353
258.588501
258.618411
258.645502
258.630208
258.653911
258.680192
258.71042
258.746227
258.789541
258.842627
258.908124
258.98909
259.089051
259.21203
259.362525
259.545799
259.767983
260.022502
260.182246
256.6958
256.702467
256.715261
256.733411
256.756364
256.783792
256.815511
256.851419
256.891451
256.935556
256.983688
257.035801
257.090455
257.147551
257.206952
257.268482
257.331933
257.39708
257.46368
257.531481
257.600212
257.669596
257.739341
257.809149
257.878715
257.947728
258.015875
258.082846
258.14833
258.212025
258.273641
258.332899
258.389541
258.443335
258.494076
258.541599
258.58578
258.626551
258.6639
258.697889
258.728662
258.756455
258.781612
258.804603
258.784827
258.805803
258.82997
258.858651
258.893425
258.936156
258.989022
259.054554
259.135671
259.235725
259.358506
259.508277
259.690028
259.909486
260.163443
260.31516
257.144788
257.151383
257.164059
257.182058
257.204847
257.232134
257.262482
257.295822
257.3321
257.371253
257.413192
257.457801
257.504933
257.554425
257.606099
257.65976
257.7152
257.772194
257.830506
257.889887
257.950077
258.010807
258.071801
258.132774
258.193439
258.253506
258.312684
258.370685
258.427227
258.482036
258.534849
258.585421
258.633525
258.678962
258.721562
258.761192
258.797761
258.831232
258.861621
258.889017
258.913581
258.935564
258.955317
258.933414
258.950482
258.969987
258.993047
259.020992
259.055382
259.09804
259.15108
259.21694
259.298417
259.398698
259.521349
259.670412
259.850619
260.067308
260.320746
260.464363
257.618027
257.623671
257.634447
257.649541
257.668337
257.690434
257.715584
257.743627
257.774443
257.80792
257.843942
257.882381
257.923095
257.965929
258.010709
258.057249
258.105351
258.1548
258.205373
258.256836
258.308945
258.361449
258.41409
258.466607
258.518735
258.57021
258.620767
258.670149
258.718104
258.764391
258.808782
258.851068
258.891062
258.928602
258.963559
258.995844
259.025408
259.052258
259.076455
259.098132
259.117497
259.134846
259.150577
259.124139
259.138468
259.155813
259.177261
259.204097
259.237831
259.280217
259.333282
259.399354
259.481092
259.581509
259.703944
259.852212
260.030792
260.244638
260.497608
260.633043
258.074985
258.080136
258.08995
258.103616
258.120509
258.140228
258.162536
258.187285
258.214371
258.243699
258.275169
258.308673
258.344087
258.381272
258.420074
258.460327
258.50185
258.544451
258.587925
258.632061
258.676637
258.721426
258.766195
258.810709
258.85473
258.898022
258.940353
258.981493
259.021224
259.059338
259.095641
259.129957
259.162134
259.192045
259.219597
259.24473
259.26743
259.287731
259.305721
259.321555
259.335457
259.347734
259.318809
259.329247
259.342139
259.358417
259.379173
259.405686
259.439438
259.482136
259.535741
259.602485
259.684911
259.785877
259.908507
260.05642
260.233874
260.445468
260.69882
260.82692
258.534309
258.539058
258.548099
258.560615
258.57597
258.593743
258.613683
258.635642
258.659514
258.685213
258.712651
258.741732
258.772347
258.804374
258.837677
258.872109
258.907507
258.943701
258.980509
259.017742
259.055202
259.092689
259.129997
259.166918
259.203245
259.238772
259.273299
259.306631
259.338584
259.368986
259.39768
259.42453
259.449423
259.472272
259.493023
259.511662
259.528214
259.542756
259.555419
259.5664
259.575964
259.584462
259.551085
259.558909
259.569721
259.584423
259.604077
259.629918
259.663372
259.706078
259.759905
259.826977
259.909696
260.010737
260.133033
260.280007
260.455636
260.66417
260.917129
261.03679
259.002968
259.007336
259.015647
259.027085
259.041001
259.056955
259.074682
259.094022
259.114872
259.137149
259.160774
259.185662
259.211717
259.238834
259.266892
259.295763
259.325303
259.355362
259.385781
259.416393
259.447025
259.477501
259.507642
259.537268
259.566199
259.594262
259.621284
259.647103
259.671568
259.694539
259.715893
259.735527
259.75336
259.76934
259.783445
259.795689
259.80613
259.81487
259.822065
259.827931
259.832752
259.796484
259.800346
259.806761
259.816502
259.830474
259.849726
259.875466
259.909081
259.952147
260.006456
260.074029
260.157134
260.258261
260.380186
260.526161
260.699859
260.905216
261.157847
261.268933
259.484428
259.48842
259.496019
259.506411
259.518939
259.533146
259.54875
259.565581
259.583534
259.602529
259.622494
259.643356
259.665033
259.687432
259.710452
259.73398
259.757895
259.782065
259.806354
259.830617
259.854706
259.878471
259.901757
259.924414
259.94629
259.96724
259.987123
260.005807
260.023171
260.039108
260.053528
260.066357
260.077549
260.08708
260.09496
260.101231
260.105975
260.109319
260.111441
260.112573
260.073281
260.073328
260.075604
260.080775
260.089616
260.103022
260.122022
260.147794
260.181674
260.225178
260.280012
260.348096
260.431565
260.532723
260.654195
260.799072
260.97073
261.172803
261.425223
261.527601
259.980935
259.984555
259.991456
260.00083
260.012017
260.024544
260.038113
260.052543
260.067725
260.083582
260.100049
260.117062
260.134553
260.152446
260.170655
260.189087
260.207639
260.226202
260.244662
260.262898
260.280788
260.298206
260.315027
260.331127
260.346386
260.360689
260.373926
260.385999
260.396821
260.40632
260.414438
260.421142
260.426418
260.430281
260.432776
260.433984
260.434025
260.433061
260.431305
260.429027
260.38536
260.382971
260.383267
260.386895
260.394609
260.407278
260.425896
260.451593
260.485647
260.529499
260.584767
260.653261
260.736971
260.838029
260.958921
261.10256
261.272036
261.470695
261.723044
261.816557
260.494342
260.497594
260.503812
260.512198
260.522094
260.533013
260.544641
260.556787
260.569335
260.58221
260.595352
260.608709
260.622223
260.635834
260.649473
260.663064
260.676525
260.689767
260.702698
260.715221
260.727237
260.738646
260.74935
260.759251
260.768257
260.77628
260.783242
260.789072
260.793714
260.797124
260.799277
260.800166
260.799807
260.798243
260.795545
260.791817
260.787203
260.781883
260.776089
260.729313
260.723289
260.719679
260.719052
260.722059
260.72945
260.742077
260.760906
260.78703
260.821675
260.866213
260.922179
260.99127
261.075316
261.176339
261.296716
261.439105
261.606357
261.805982
262.054054
262.138552
261.026581
261.029472
261.035027
261.04246
261.051122
261.060517
261.070315
261.080314
261.09039
261.100467
261.110492
261.120419
261.130204
261.1398
261.149154
261.158209
261.166901
261.175163
261.182923
261.190108
261.196641
261.202449
261.207457
261.211594
261.214795
261.217001
261.218159
261.218229
261.217181
261.215
261.21169
261.207271
261.201787
261.195307
261.187927
261.179776
261.171018
261.161856
261.111975
261.102579
261.095405
261.090945
261.089767
261.092515
261.099926
261.112829
261.132158
261.158962
261.194411
261.239807
261.296599
261.366373
261.450794
261.551783
261.671613
261.812698
261.977653
262.179542
262.422232
262.497543
261.57991
261.582448
261.587365
261.59389
261.601388
261.609358
261.617457
261.625468
261.633263
261.640761
261.647914
261.654682
261.661033
261.666933
261.672344
261.677226
261.681535
261.685223
261.68824
261.690533
261.692051
261.692743
261.692559
261.691455
261.689389
261.686329
261.682251
261.677139
261.670992
261.663822
261.655658
261.646547
261.636558
261.625785
261.614347
261.602395
261.590112
261.537193
261.524709
261.514295
261.506384
261.501472
261.500119
261.502962
261.510718
261.524191
261.54428
261.571985
261.608419
261.654814
261.712524
261.782999
261.867804
261.968781
262.088022
262.227731
262.390302
262.594775
262.832009
262.897937
262.157045
262.159241
262.16355
262.169218
262.17563
262.182286
262.188832
262.195038
262.200768
262.205937
262.210497
262.214417
262.217671
262.220239
262.222097
262.223223
262.223589
262.223167
262.221926
262.219837
262.21687
262.212995
262.208189
262.202429
262.195701
262.187996
262.179315
262.169669
262.159081
262.147589
262.135245
262.122123
262.108313
262.093932
262.079119
262.064045
262.009619
261.995192
261.982526
261.97198
261.963963
261.958938
261.95743
261.960027
261.967389
261.980673
262.001797
262.03064
262.068251
262.115792
262.174521
262.245738
262.330938