/*--------------------------------*- C++ -*----------------------------------*\
  =========                 |
  \\      /  F ield         | OpenFOAM: The Open Source CFD Toolbox
   \\    /   O peration     | Website:  https://openfoam.org
    \\  /    A nd           | Version:  11
     \\/     M anipulation  |
\*---------------------------------------------------------------------------*/
FoamFile
{
    format      ascii;
    class       volScalarField;
    location    "1.26739e-05";
    object      T.gas;
}
// * * * * * * * * * * * * * * * * * * * * * * * * * * * * * * * * * * * * * //

dimensions      [0 0 0 1 0 0 0];

internalField   nonuniform List<scalar> 
120000
(
293.0453
293.045324
293.045373
293.045448
293.045548
293.045675
293.045829
293.046012
293.046224
293.046467
293.046743
293.047054
293.047402
293.047788
293.048216
293.048689
293.049209
293.049781
293.050407
293.051092
293.05184
293.052656
293.053546
293.054514
293.055568
293.056713
293.057958
293.059308
293.060774
293.062363
293.064085
293.06595
293.06797
293.070155
293.072519
293.075073
293.077833
293.080811
293.084023
293.087483
293.091207
293.095209
293.099501
293.104095
293.108998
293.114208
293.119717
293.125499
293.131503
293.137643
293.143776
293.149673
293.154976
293.159129
293.161276
293.160103
293.153598
293.138681
293.110576
293.077343
293.048744
293.048809
293.04894
293.049137
293.049402
293.049737
293.050143
293.050624
293.051182
293.051821
293.052545
293.053358
293.054265
293.055272
293.056385
293.05761
293.058954
293.060426
293.062033
293.063785
293.065692
293.067763
293.07001
293.072443
293.075077
293.077922
293.080994
293.084304
293.087869
293.091701
293.095817
293.100229
293.104953
293.11
293.115384
293.121113
293.127194
293.133631
293.140423
293.147561
293.155028
293.162797
293.170827
293.179058
293.187409
293.19577
293.203995
293.211894
293.21922
293.225654
293.230794
293.234129
293.235015
293.232651
293.226049
293.214001
293.198869
293.171815
293.133793
293.106239
293.055316
293.05542
293.055628
293.055942
293.056363
293.056895
293.05754
293.058302
293.059186
293.060196
293.061338
293.06262
293.064047
293.065629
293.067373
293.06929
293.071388
293.07368
293.076177
293.078892
293.081837
293.085027
293.088477
293.092202
293.096217
293.10054
293.105187
293.110174
293.115518
293.121235
293.127341
293.13385
293.140773
293.148123
293.155904
293.164119
293.172766
293.181834
293.191305
293.201151
293.211328
293.221781
293.232431
293.24318
293.253899
293.264428
293.274569
293.284075
293.292648
293.299926
293.305474
293.308773
293.30921
293.306063
293.302251
293.28965
293.270403
293.24321
293.206072
293.186203
293.062953
293.063092
293.063371
293.063791
293.064356
293.065067
293.065929
293.066946
293.068124
293.069469
293.070988
293.072689
293.07458
293.076672
293.078975
293.0815
293.08426
293.087267
293.090536
293.09408
293.097917
293.102062
293.106531
293.111341
293.116512
293.122059
293.128001
293.134354
293.141137
293.148364
293.156049
293.164205
293.17284
293.18196
293.191567
293.201655
293.212214
293.223222
293.234651
293.246457
293.258583
293.270956
293.28348
293.296038
293.308482
293.320636
293.332283
293.343167
293.35298
293.361359
293.36788
293.372044
293.373271
293.374703
293.368269
293.356421
293.338113
293.312144
293.276529
293.260959
293.070689
293.07086
293.071201
293.071715
293.072404
293.073272
293.074323
293.075562
293.076996
293.07863
293.080475
293.082537
293.084828
293.087358
293.090137
293.09318
293.0965
293.10011
293.104025
293.108263
293.112838
293.117768
293.12307
293.128763
293.134863
293.141389
293.148358
293.155787
293.16369
293.172083
293.180976
293.190378
293.200297
293.210732
293.22168
293.233131
293.245067
293.257459
293.270271
293.283451
293.296933
293.310634
293.32445
293.338253
293.35189
293.365176
293.37789
293.389773
293.400518
293.409767
293.417102
293.422041
293.427697
293.426368
293.42056
293.409397
293.391874
293.366838
293.332328
293.318489
293.078105
293.078301
293.078694
293.079286
293.08008
293.08108
293.082291
293.083718
293.085368
293.087248
293.089368
293.091735
293.094361
293.097258
293.100436
293.103909
293.107692
293.111798
293.116244
293.121044
293.126216
293.131777
293.137744
293.144134
293.150964
293.158252
293.166013
293.174263
293.183015
293.192281
293.202071
293.212389
293.22324
293.234619
293.24652
293.258926
293.271815
293.285154
293.298899
293.312993
293.327365
293.341925
293.356564
293.37115
293.385525
293.399501
293.412856
293.42533
293.436619
293.446371
293.454177
293.463026
293.465713
293.464682
293.459196
293.448408
293.431346
293.4069
293.373147
293.358715
293.08506
293.085277
293.085711
293.086367
293.087247
293.088356
293.0897
293.091283
293.093114
293.095199
293.097547
293.100169
293.103073
293.106273
293.109779
293.113606
293.117766
293.122274
293.127146
293.132398
293.138045
293.144103
293.15059
293.157522
293.164914
293.172783
293.181143
293.190007
293.199387
293.209292
293.21973
293.230702
293.242209
293.254244
293.266795
293.279844
293.293362
293.307313
293.321649
293.336308
293.351214
293.366273
293.381373
293.396378
293.411127
293.425431
293.439066
293.451773
293.46325
293.473148
293.481064
293.490121
293.492873
293.49191
293.486515
293.475872
293.459044
293.434963
293.401752
293.387029
293.091559
293.09179
293.092257
293.092963
293.093913
293.095112
293.096565
293.098279
293.10026
293.102515
293.105054
293.107885
293.11102
293.114468
293.118243
293.122356
293.126822
293.131654
293.136867
293.142477
293.148497
293.154945
293.161835
293.169183
293.177003
293.18531
293.194116
293.203433
293.21327
293.223634
293.23453
293.245957
293.257912
293.270386
293.283364
293.296822
293.310731
293.325049
293.339725
293.354694
293.369877
293.385176
293.400477
293.415642
293.430508
293.444884
293.458549
293.471245
293.482671
293.492483
293.500286
293.509299
293.511914
293.510826
293.505346
293.494682
293.477934
293.454075
293.421275
293.406455
293.097671
293.097914
293.098405
293.09915
293.100157
293.10143
293.102975
293.104798
293.106904
293.109302
293.111999
293.115004
293.118328
293.121982
293.125976
293.130323
293.135036
293.140129
293.145615
293.151508
293.157824
293.164575
293.171778
293.179445
293.18759
293.196225
293.205361
293.215008
293.225174
293.235862
293.247075
293.25881
293.271061
293.283817
293.297058
293.310759
293.324887
293.339399
293.354238
293.369339
293.384619
293.39998
293.415305
293.430455
293.445268
293.459554
293.473093
293.485632
293.496877
293.506491
293.51748
293.52286
293.525165
293.523804
293.518106
293.507307
293.490536
293.466808
293.43434
293.419542
293.103496
293.103747
293.104256
293.105034
293.106088
293.107423
293.109045
293.110959
293.113172
293.115689
293.118519
293.12167
293.125152
293.128975
293.133151
293.13769
293.142606
293.14791
293.153616
293.159737
293.166286
293.173277
293.180722
293.188635
293.197027
293.205909
293.215289
293.225177
293.235576
293.246489
293.257917
293.269854
293.282291
293.295214
293.308602
293.322427
293.336653
293.351233
293.366111
293.381217
293.396467
293.411761
293.426982
293.441989
293.45662
293.470688
293.483973
293.496225
293.507155
293.516433
293.527135
293.53216
293.53412
293.532447
293.526491
293.515516
293.498683
293.475049
293.442874
293.428177
293.109141
293.109396
293.10992
293.110725
293.111819
293.113207
293.114895
293.116888
293.11919
293.121809
293.124752
293.128027
293.131643
293.135609
293.139937
293.144636
293.14972
293.155198
293.161084
293.16739
293.174127
293.181309
293.188947
293.197051
293.205633
293.214701
293.224262
293.234324
293.244888
293.255955
293.267523
293.279585
293.292129
293.305139
293.318592
293.332456
293.346694
293.361257
293.376086
293.391109
293.406242
293.421383
293.436413
293.451192
293.465559
293.479327
293.492281
293.504172
293.514717
293.523592
293.533945
293.538564
293.540139
293.538118
293.531873
293.520695
293.503778
293.480214
293.448313
293.433764
293.114706
293.114966
293.115501
293.116329
293.117457
293.118891
293.120637
293.122697
293.125078
293.127786
293.130827
293.134208
293.137939
293.142029
293.146486
293.151322
293.156547
293.162172
293.168208
293.174666
293.181558
293.188895
293.196686
293.204942
293.213672
293.222882
293.232579
293.242766
293.253445
293.264614
293.27627
293.288402
293.300997
293.314037
293.327495
293.34134
293.35553
293.370016
293.384736
293.399617
293.414574
293.429503
293.444285
293.458782
293.472832
293.48625
293.498823
293.510308
293.520427
293.528863
293.538828
293.543013
293.544176
293.541785
293.535234
293.523838
293.506823
293.483321
293.451684
293.437312
293.120287
293.120549
293.121094
293.121941
293.123099
293.124574
293.126371
293.128492
293.130942
293.133728
293.136855
293.14033
293.144162
293.148359
293.15293
293.157884
293.163231
293.168981
293.175145
293.181732
293.188753
293.196218
293.204134
293.212512
293.221358
293.230677
293.240475
293.250752
293.26151
293.272743
293.284447
293.296609
293.309215
293.322242
293.335665
293.349448
293.363548
293.377915
293.392485
293.407184
293.421924
293.436603
293.451102
293.465282
293.478982
293.492021
293.504187
293.515241
293.52491
293.532885
293.542442
293.546172
293.546906
293.544131
293.537262
293.52564
293.508522
293.485077
293.453699
293.439523
293.125963
293.126228
293.126782
293.127646
293.128831
293.130342
293.132184
293.134359
293.136872
293.139728
293.142932
293.146492
293.150414
293.154706
293.159376
293.164434
293.169888
293.175748
293.182022
293.188719
293.19585
293.203421
293.211442
293.219918
293.228856
293.238259
293.248131
293.258472
293.26928
293.280549
293.292271
293.304433
293.317018
293.330002
293.343358
293.357047
293.371027
293.385243
293.399633
293.414121
293.428618
293.443023
293.457216
293.471059
293.484396
293.497046
293.508803
293.519434
293.528674
293.53958
293.54532
293.548547
293.548819
293.545635
293.538432
293.526574
293.509346
293.485953
293.454832
293.440863
293.131808
293.132075
293.132636
293.133515
293.134724
293.136268
293.138151
293.140375
293.142945
293.145864
293.149139
293.152774
293.156777
293.161155
293.165915
293.171066
293.176614
293.18257
293.18894
293.195733
293.202957
293.210619
293.218725
293.227281
293.236291
293.245759
293.255684
293.266066
293.276901
293.288181
293.299897
293.312034
293.324573
293.337488
293.350749
293.364318
293.37815
293.392189
293.406371
293.42062
293.434847
293.448949
293.462807
293.476285
293.489228
293.501457
293.512769
293.522936
293.531698
293.542177
293.547434
293.550194
293.550031
293.54646
293.538941
293.526861
293.509537
293.486208
293.45535
293.441599
293.137882
293.13815
293.138718
293.13961
293.140841
293.142415
293.144335
293.146604
293.149226
293.152203
293.155541
293.159246
293.163323
293.167778
293.172619
293.177852
293.183485
293.189525
293.19598
293.202856
293.210159
293.217897
293.226074
293.234694
293.24376
293.253274
293.263234
293.273638
293.28448
293.295752
293.307441
293.319531
293.332001
293.344825
293.35797
293.371396
293.385057
293.398896
293.412847
293.426834
293.440768
293.454545
293.468048
293.481141
293.49367
293.505459
293.516311
293.526
293.534273
293.544317
293.54909
293.551386
293.550791
293.546841
293.539014
293.526722
293.509312
293.486055
293.455466
293.44194
293.144238
293.144508
293.145081
293.145985
293.147235
293.148836
293.15079
293.1531
293.155768
293.158799
293.162195
293.165963
293.170106
293.174631
293.179545
293.184852
293.19056
293.196675
293.203204
293.210151
293.217522
293.225323
293.233557
293.242227
293.251334
293.260878
293.270857
293.281266
293.292098
293.303343
293.314987
293.327012
293.339395
293.352107
293.365116
293.37838
293.39185
293.40547
293.419172
293.432879
293.446503
293.459939
293.473071
293.485764
293.497866
293.509206
293.519587
293.52879
293.536568
293.546176
293.550462
293.552294
293.551272
293.546947
293.538818
293.526322
293.508833
293.485655
293.455343
293.442048
293.150923
293.151194
293.151771
293.152686
293.153953
293.155577
293.157562
293.159909
293.16262
293.165698
293.169147
293.172972
293.177176
293.181764
293.186742
293.192116
293.19789
293.20407
293.210662
293.217669
293.225097
293.232949
293.241228
293.249934
293.259068
293.268628
293.27861
293.289009
293.299815
293.311017
293.322599
293.334541
293.346819
293.359404
293.372259
293.385344
293.398607
293.411991
293.425429
293.438842
293.452142
293.465225
293.477975
293.490259
293.501928
293.512811
293.522718
293.531432
293.538713
293.547882
293.55168
293.553047
293.551598
293.546901
293.538475
293.52578
293.508219
293.485128
293.455097
293.442037
293.157978
293.158249
293.15883
293.159753
293.161034
293.162679
293.164691
293.167071
293.16982
293.172942
293.176438
293.180314
293.184571
293.189216
293.194251
293.199682
293.205514
293.21175
293.218395
293.225452
293.232925
293.240816
293.249126
293.257856
293.267003
293.276564
293.286535
293.296908
293.307673
293.318815
293.330319
293.342162
293.354319
293.366759
293.379445
293.392335
293.405376
293.418511
293.431671
293.444779
293.457745
293.470467
293.482831
293.494706
293.505945
293.516382
293.525831
293.534083
293.544261
293.549603
293.552881
293.553761
293.551871
293.546794
293.538068
293.525175
293.507546
293.484546
293.4548
293.441979
293.165439
293.165711
293.166294
293.167223
293.168516
293.170179
293.172214
293.174623
293.177406
293.180565
293.184104
293.188024
293.192328
293.197021
293.202106
293.207586
293.213466
293.219748
293.226436
293.233532
293.241039
293.248956
293.257285
293.266024
293.27517
293.284719
293.294663
293.304995
293.315701
293.326767
293.338175
293.349902
293.36192
293.374198
293.386697
293.399372
293.412173
293.42504
293.437904
293.450687
293.4633
293.475643
293.4876
293.499044
293.50983
293.519794
293.528755
293.536509
293.546247
293.55109
293.553883
293.554306
293.551999
293.546565
293.537558
293.524485
293.506803
293.483906
293.454456
293.441879
293.173342
293.173613
293.174197
293.17513
293.176432
293.178109
293.180164
293.182597
293.185409
293.188601
293.192175
293.196133
293.200478
293.205211
293.210337
293.215858
293.221776
293.228094
293.234814
293.241937
293.249465
293.257397
293.265731
293.274465
293.283596
293.293116
293.303019
293.313292
293.323924
293.334898
293.346193
293.357785
293.369647
293.381744
293.394038
293.406482
293.419025
293.431606
293.444156
293.456598
293.468843
293.48079
293.492327
293.503327
293.513647
293.523128
293.531593
293.538842
293.548138
293.552482
293.554796
293.554768
293.552054
293.546272
293.536996
293.523755
293.506031
293.483248
293.454103
293.441773
293.181718
293.181989
293.182571
293.183507
293.184815
293.186502
293.188573
293.191025
293.19386
293.197079
293.200682
293.204671
293.209048
293.213815
293.218972
293.224524
293.23047
293.236813
293.243554
293.250693
293.258229
293.266161
293.274487
293.283203
293.292303
293.30178
293.311624
293.321824
293.332365
293.343228
293.354393
293.365835
293.377523
293.389423
293.401494
293.413691
293.425959
293.43824
293.450463
293.46255
293.474414
293.485956
293.497062
293.50761
293.517459
293.526453
293.534418
293.54116
293.550012
293.553858
293.555692
293.555215
293.552099
293.545974
293.536437
293.523035
293.505279
293.48262
293.453785
293.441707
293.190599
293.190868
293.191448
293.192383
293.193694
293.195389
293.197469
293.199936
293.202789
293.206029
293.209654
293.213667
293.218068
293.222858
293.228038
293.23361
293.239574
293.245931
293.25268
293.259821
293.267353
293.275272
293.283575
293.292257
293.301311
293.310728
293.320498
293.330607
293.34104
293.351776
293.362794
293.374067
293.385565
293.39725
293.409083
293.421017
293.432997
293.444964
293.456847
293.468571
293.480047
293.491177
293.501853
293.511952
293.521337
293.529858
293.537346
293.546954
293.551997
293.555315
293.55665
293.555713
293.552187
293.545719
293.535921
293.522364
293.50458
293.482051
293.453533
293.441708
293.200016
293.200283
293.200859
293.20179
293.203101
293.204798
293.206885
293.20936
293.212225
293.215477
293.219118
293.223146
293.227562
293.232366
293.237559
293.243141
293.249111
293.255469
293.262214
293.269345
293.276857
293.284748
293.293013
293.301645
293.310637
293.319977
293.329655
293.339656
293.349962
293.360552
293.371404
293.38249
293.393777
293.405229
293.416805
293.428456
293.440128
293.451761
293.463286
293.474625
293.485693
293.496392
293.506616
293.516243
293.52514
293.53316
293.540139
293.549302
293.553836
293.55666
293.557522
293.556148
293.552233
293.545441
293.5354
293.521704
293.503909
293.481521
293.45333
293.441763
293.21
293.210263
293.210833
293.211759
293.213064
293.21476
293.216847
293.219326
293.222195
293.225454
293.229101
293.233136
293.237558
293.242366
293.247561
293.253141
293.259105
293.265451
293.272179
293.279284
293.286763
293.29461
293.302821
293.311386
293.320298
293.329544
293.339112
293.348985
293.359146
293.369572
293.380239
293.391117
293.402175
293.413375
293.424673
293.436023
293.447369
293.458651
293.4698
293.480739
293.491383
293.501637
293.511394
293.520537
293.528937
293.536448
293.542912
293.551628
293.555654
293.557986
293.558382
293.55658
293.552286
293.545181
293.53491
293.521086
293.503291
293.481057
293.453201
293.441896
293.220581
293.22084
293.221402
293.222319
293.223616
293.225305
293.227387
293.229862
293.232729
293.235986
293.239632
293.243664
293.248081
293.252883
293.258068
293.263634
293.269579
293.275901
293.282596
293.289661
293.29709
293.304878
293.313018
293.3215
293.330314
293.339448
293.348887
293.358615
293.368612
293.378854
293.389317
293.39997
293.41078
293.421709
293.432713
293.443745
293.454749
293.465664
293.476423
293.486949
293.497157
293.506955
293.516238
293.524891
293.532787
293.539786
293.545731
293.554001
293.557518
293.559358
293.559292
293.557064
293.552398
293.544988
293.534495
293.520554
293.50277
293.480697
293.453121
293.442143
293.231791
293.232044
293.232597
293.233501
293.234786
293.236463
293.238534
293.240999
293.243856
293.247103
293.250737
293.254757
293.25916
293.263944
293.269106
293.274646
293.280558
293.286841
293.293489
293.300498
293.307862
293.315574
293.323625
293.332006
293.340704
293.349707
293.359
293.368563
293.378376
293.388416
293.398656
293.409066
293.41961
293.430251
293.440944
293.451642
293.46229
293.472826
293.483184
293.493289
293.503058
293.512398
293.521208
293.529378
293.536782
293.543287
293.552109
293.556543
293.559527
293.560859
293.560317
293.55766
293.55262
293.544905
293.534197
293.520146
293.50238
293.480475
293.453038
293.442537
293.243661
293.243908
293.244449
293.245338
293.246605
293.248265
293.250319
293.252767
293.255606
293.258834
293.262447
293.266444
293.27082
293.275574
293.280702
293.286201
293.292066
293.298294
293.30488
293.311817
293.319098
293.326716
293.334661
293.342921
293.351485
293.360338
293.369463
293.378841
293.388451
293.398268
293.408265
293.41841
293.428668
293.439
293.449363
293.459707
293.469978
293.480116
293.490053
293.499717
293.509024
293.517886
293.526203
293.533865
293.540752
293.546734
293.555106
293.559021
293.5615
293.562348
293.561353
293.558285
293.55289
293.54489
293.533982
293.519837
293.502104
293.480379
293.453088
293.443069
293.256224
293.256463
293.25699
293.25786
293.259106
293.260742
293.262772
293.265195
293.268008
293.271207
293.27479
293.278752
293.283091
293.287802
293.292881
293.298325
293.304129
293.310287
293.316793
293.323641
293.330822
293.338327
293.346147
293.354268
293.362677
293.37136
293.380298
293.389471
293.398857
293.40843
293.418163
293.428023
293.437975
293.44798
293.457992
293.467964
293.477842
293.487564
293.497066
293.506274
293.515108
293.52348
293.531292
293.538439
293.544803
293.550257
293.558178
293.561573
293.563548
293.563916
293.562475
293.559004
293.553263
293.544988
293.533892
293.519666
293.501976
293.480443
293.453304
293.443772
293.269512
293.269743
293.270254
293.271102
293.272321
293.273928
293.275927
293.278317
293.281094
293.284255
293.287796
293.291713
293.296
293.300655
293.305672
293.311047
293.316773
293.322844
293.329254
293.335994
293.343057
293.350431
293.358106
293.366068
293.374303
293.382795
293.391525
293.400472
293.409614
293.418924
293.428373
293.437929
293.447556
293.457215
293.466861
293.476446
293.485916
293.495211
293.504268
293.513014
293.52137
293.529252
293.536565
293.543205
293.549062
293.557371
293.561462
293.564316
293.565771
293.565648
293.563756
293.559882
293.553798
293.545252
293.533975
293.519677
293.50204
293.480706
293.453722
293.444683
293.283559
293.283782
293.284274
293.285095
293.286284
293.287855
293.289816
293.292164
293.294896
293.298008
293.301496
293.305355
293.309579
293.314164
293.319104
293.324393
293.330024
293.335992
293.342288
293.348903
293.355828
293.363051
293.370561
293.378343
293.386383
293.394663
293.403163
293.411863
293.420739
293.429763
293.438907
293.448137
293.457418
293.46671
293.475968
293.485144
293.494186
293.503034
293.511624
293.519887
293.527746
293.535116
293.541906
293.548017
293.553339
293.561193
293.564754
293.567091
293.568048
293.567456
293.56513
293.560871
293.554461
293.545663
293.534222
293.519866
293.502298
293.481175
293.454352
293.445811
293.298401
293.298613
293.299084
293.299876
293.301028
293.302558
293.304472
293.30677
293.309447
293.3125
293.315924
293.319711
293.323858
293.328359
293.333206
293.338393
293.343914
293.349761
293.355924
293.362395
293.369162
293.376215
293.383539
293.391121
293.398944
293.406991
293.415241
293.423672
293.43226
293.440977
293.449794
293.458678
293.467593
293.476498
293.48535
293.4941
293.502697
293.511081
293.519192
293.526958
293.534307
293.541155
293.547415
293.552988
293.557771
293.565169
293.5682
293.570021
293.570485
293.569428
293.566678
293.562043
293.555318
293.546279
293.534686
293.520286
293.502797
293.481897
293.45524
293.447202
293.314072
293.314273
293.314722
293.31548
293.31659
293.318072
293.319932
293.32217
293.324783
293.327765
293.331112
293.334816
293.338871
293.343272
293.348011
293.353081
293.358474
293.364181
293.370193
293.376501
293.383091
293.389953
293.397072
293.404432
293.412018
293.41981
293.427788
293.43593
293.44421
293.4526
293.461072
293.469591
293.478121
293.486623
293.495053
293.503364
293.511504
293.519416
293.527039
293.534306
293.541144
293.547474
293.553211
293.558261
293.565911
293.56945
293.571931
293.573223
293.573183
293.571658
293.568481
293.563473
293.556439
293.547167
293.535431
293.520997
293.503598
293.482929
293.45644
293.448912
293.33061
293.330799
293.331222
293.331943
293.333006
293.334433
293.336231
293.3384
293.340938
293.343838
293.347095
293.350702
293.354652
293.358938
293.363553
293.368488
293.373735
293.379285
293.385127
293.391251
293.397645
293.404295
293.411187
293.418305
293.425631
293.433147
293.440832
293.448662
293.456612
293.464654
293.472758
293.480891
293.489017
293.497095
293.505084
293.512936
293.5206
293.52802
293.535137
293.541886
293.548194
293.553986
293.559179
293.563682
293.570872
293.57387
293.575822
293.576603
293.576078
293.574101
293.570515
293.56515
293.557822
293.548333
293.536473
293.52202
293.504723
293.484297
293.457979
293.450967
293.348051
293.348227
293.348622
293.349303
293.350314
293.351679
293.353407
293.355498
293.35795
293.360756
293.363911
293.367407
293.371237
293.375393
293.379866
293.38465
293.389733
293.395106
293.400759
293.40668
293.412856
293.419274
293.425918
293.432772
293.439819
293.447037
293.454407
293.461904
293.469504
293.477178
293.484895
293.492623
293.500326
293.507965
293.515497
293.522877
293.530054
293.536974
293.543579
293.549806
293.555585
293.560844
293.565503
293.572834
293.576191
293.57863
293.580041
293.580304
293.57929
293.576863
293.572872
293.567157
293.559544
293.549849
293.537876
293.523417
293.506232
293.48606
293.459915
293.453424
293.366435
293.366597
293.366963
293.367599
293.368552
293.369849
293.371498
293.373502
293.375857
293.378558
293.381597
293.384968
293.388663
293.392672
293.396989
293.401602
293.406503
293.411682
293.417126
293.422823
293.428761
293.434926
293.441301
293.447869
293.454613
293.461512
293.468545
293.475688
293.482915
293.490199
293.497508
293.504811
293.512071
293.519249
293.526305
293.533193
293.539864
293.546265
293.552339
293.558025
293.563256
293.567961
293.572063
293.578931
293.581738
293.583637
293.584524
293.584285
293.5828
293.579938
293.575559
293.56951
293.56163
293.551745
293.539676
293.525225
293.508168
293.488261
293.462292
293.456329
293.385801
293.385949
293.386283
293.386872
293.387763
293.388984
293.390547
293.392453
293.394701
293.397284
293.400195
293.403427
293.406971
293.410819
293.414961
293.419387
293.424088
293.429052
293.434268
293.439722
293.445402
293.451292
293.457377
293.463639
293.47006
293.476619
293.483294
293.490062
293.496897
293.503772
293.510655
293.517514
293.524315
293.531019
293.537586
293.543971
293.550127
293.556003
293.561543
293.566688
293.571375
293.575535
293.582451
293.585488
293.587728
293.589076
293.589432
293.58869
293.586735
293.583443
293.578681
293.572308
293.564172
293.554109
293.541957
293.527528
293.51061
293.49098
293.465185
293.459758
293.406194
293.406326
293.406628
293.407165
293.407989
293.409128
293.410596
293.412396
293.414525
293.416978
293.419748
293.422827
293.426206
293.429875
293.433826
293.438048
293.44253
293.447261
293.452229
293.457421
293.462822
293.468418
293.474191
293.480126
293.486202
293.4924
293.498697
293.505069
293.511491
293.517936
293.524373
293.530769
293.537092
293.543303
293.549362
293.555226
293.560849
293.566181
293.571169
293.575756
293.57988
293.583474
293.589925
293.592403
293.594093
293.594907
293.594749
293.59352
293.59111
293.587403
293.582277
293.575597
293.567221
293.557
293.544781
293.530389
293.513624
293.494284
293.468661
293.463777
293.427658
293.427774
293.428041
293.428525
293.429276
293.430327
293.431693
293.433377
293.435377
293.437689
293.440304
293.443216
293.446415
293.449891
293.453634
293.457634
293.461881
293.466361
293.471062
293.475972
293.481075
293.486357
293.4918
293.497388
293.503101
293.508918
293.514818
293.520776
293.526769
293.532767
293.538742
293.544662
293.550494
293.5562
293.561743
293.567079
293.572165
293.576953
293.58139
293.585423
293.588992
293.595412
293.598011
293.599915
293.601045
293.601318
293.600643
293.598927
293.596067
293.591953
293.58647
293.579494
293.570891
293.560526
293.548255
293.533912
293.517313
293.498273
293.47282
293.468485
293.450242
293.450341
293.450572
293.450999
293.451675
293.452632
293.453887
293.455446
293.457307
293.459466
293.461915
293.464646
293.46765
293.470917
293.474437
293.478199
293.482191
293.486402
293.490819
293.495428
293.500214
293.505163
293.510256
293.515478
293.520807
293.526225
293.531709
293.537236
293.542781
293.548316
293.553813
293.559241
293.564567
293.569756
293.57477
293.579568
293.584107
293.588342
293.592223
293.595698
293.602024
293.604657
293.606676
293.608011
293.608588
293.608329
293.607148
293.604957
293.601659
293.597152
293.591328
293.584071
293.575258
293.564766
293.55246
293.53818
293.521762
293.503034
293.477745
293.473969
293.473998
293.474081
293.474274
293.474643
293.475239
293.476097
293.477235
293.47866
293.480372
293.482367
293.484637
293.487174
293.489969
293.493012
293.496293
293.4998
293.503521
293.507446
293.51156
293.515849
293.5203
293.524896
293.529621
293.534456
293.539384
293.544383
293.549432
293.554508
293.559586
293.56464
293.569641
293.574559
293.579362
293.584016
293.588484
293.592727
293.596703
293.600368
293.603676
293.606574
293.612438
293.614499
293.615954
293.616736
293.616777
293.616002
293.614332
293.611683
293.607965
293.603084
293.596938
293.58942
293.580417
293.569818
293.557494
293.543296
293.527074
293.508672
293.48354
293.480332
293.498987
293.499054
293.499209
293.499517
293.500031
293.500785
293.5018
293.503083
293.504637
293.506457
293.508537
293.510868
293.513441
293.516246
293.519273
293.52251
293.525946
293.529568
293.533363
293.537317
293.541415
293.545643
293.549983
293.554417
293.558927
293.563492
293.568092
293.572704
293.577303
293.581863
293.586358
293.590757
293.595031
293.599145
293.603064
293.606751
293.610167
293.613268
293.61601
293.621727
293.623742
293.62522
293.626103
293.62633
293.625834
293.624546
293.622392
293.619293
293.615166
293.609922
293.603467
293.595703
293.586529
293.57584
293.563511
293.54941
293.533399
293.514966
293.490348
293.487717
293.525277
293.525326
293.525443
293.52569
293.526118
293.526765
293.527651
293.528787
293.530174
293.53181
293.533689
293.535802
293.538141
293.540696
293.543455
293.546409
293.549544
293.552849
293.55631
293.559914
293.563645
293.567489
293.571429
293.575447
293.579525
293.583643
293.58778
293.591915
293.596023
293.600079
293.604058
293.60793
293.611665
293.615233
293.618598
293.621725
293.624577
293.627112
293.632641
293.634545
293.635973
293.636874
293.637193
293.636873
293.635851
293.634062
293.631437
293.627903
293.623382
293.617792
293.611047
293.603056
293.59373
293.582969
293.570654
293.556666
293.540881
293.522319
293.498311
293.496269
293.552942
293.552975
293.553053
293.553238
293.55358
293.554116
293.55487
293.555851
293.557065
293.558509
293.560177
293.562062
293.564156
293.566448
293.568928
293.571585
293.574407
293.577381
293.580495
293.583734
293.587085
293.590532
293.594058
293.597647
293.60128
293.604938
293.608601
293.612247
293.615854
293.619397
293.62285
293.626187
293.629378
293.632393
293.635199
293.637764
293.64005
293.645357
293.647094
293.648411
293.64926
293.649593
293.649359
293.648503
293.646967
293.644692
293.641612
293.63766
293.632764
293.626848
293.619833
293.611638
293.602181
293.591365
293.579082
293.565225
293.549682
293.530974
293.507589
293.506146
293.582071
293.582089
293.582129
293.582253
293.582508
293.582931
293.583548
293.584371
293.585406
293.58665
293.5881
293.589748
293.591587
293.593606
293.595796
293.598145
293.600641
293.603273
293.606028
293.608891
293.611849
293.614887
293.617988
293.621137
293.624314
293.627503
293.630682
293.633831
293.636928
293.639949
293.642871
293.645667
293.648309
293.650769
293.653015
293.655016
293.660512
293.662284
293.663621
293.664475
293.664798
293.664536
293.663634
293.662034
293.659675
293.656613
293.653096
293.648745
293.643494
293.637272
293.630008
293.621633
293.612067
293.601215