/*--------------------------------*- C++ -*----------------------------------*\
  =========                 |
  \\      /  F ield         | OpenFOAM: The Open Source CFD Toolbox
   \\    /   O peration     | Website:  https://openfoam.org
    \\  /    A nd           | Version:  11
     \\/     M anipulation  |
\*---------------------------------------------------------------------------*/
FoamFile
{
    format      ascii;
    class       volScalarField;
    location    "1.26739e-05";
    object      thermalPhaseChange:Tf.gas_liquid;
}
// * * * * * * * * * * * * * * * * * * * * * * * * * * * * * * * * * * * * * //

dimensions      [0 0 0 1 0 0 0];

internalField   nonuniform List<scalar> 
120000
(
293.044577
293.04458
293.044586
293.044595
293.044607
293.044622
293.044641
293.044663
293.044688
293.044717
293.04475
293.044787
293.044828
293.044873
293.044923
293.044978
293.045038
293.045103
293.045174
293.045251
293.045335
293.045425
293.045523
293.045629
293.045743
293.045866
293.045998
293.046141
293.046295
293.046461
293.046641
293.046834
293.047044
293.047271
293.047517
293.047784
293.048075
293.048392
293.04874
293.049121
293.049541
293.050005
293.050519
293.051092
293.051733
293.052454
293.05327
293.054198
293.055261
293.056489
293.057917
293.059594
293.061581
293.063961
293.066841
293.070368
293.074738
293.080218
293.087115
293.09696
293.046689
293.046694
293.046704
293.04672
293.046741
293.046767
293.046799
293.046836
293.04688
293.04693
293.046987
293.047051
293.047123
293.047203
293.047291
293.047389
293.047497
293.047615
293.047744
293.047886
293.048042
293.048212
293.048397
293.0486
293.048822
293.049064
293.049328
293.049617
293.049934
293.05028
293.05066
293.051076
293.051533
293.052035
293.052588
293.053197
293.05387
293.054613
293.055436
293.056348
293.057361
293.058489
293.059746
293.061151
293.062723
293.064486
293.066468
293.068701
293.071223
293.074076
293.077312
293.080992
293.085184
293.089971
293.095447
293.101722
293.112751
293.121668
293.13157
293.151209
293.048249
293.048256
293.048271
293.048293
293.048322
293.048359
293.048403
293.048456
293.048518
293.048588
293.048667
293.048757
293.048856
293.048967
293.04909
293.049225
293.049374
293.049538
293.049717
293.049914
293.05013
293.050366
293.050624
293.050907
293.051216
293.051555
293.051926
293.052333
293.052778
293.053267
293.053804
293.054393
293.055041
293.055753
293.056537
293.057401
293.058354
293.059405
293.060567
293.061851
293.063271
293.064845
293.066589
293.068525
293.070674
293.073063
293.075721
293.07868
293.081977
293.085652
293.089753
293.094329
293.099438
293.105144
293.115324
293.122987
293.13155
293.141115
293.151266
293.176436
293.049329
293.049338
293.049356
293.049384
293.049421
293.049467
293.049523
293.04959
293.049666
293.049753
293.049851
293.049961
293.050084
293.050219
293.050369
293.050534
293.050716
293.050915
293.051134
293.051373
293.051635
293.051923
293.052237
293.052581
293.052957
293.053369
293.053821
293.054315
293.054857
293.05545
293.056101
293.056814
293.057597
293.058457
293.059401
293.060438
293.061578
293.062831
293.064211
293.065729
293.067401
293.069244
293.071274
293.073513
293.075983
293.078708
293.081716
293.085037
293.088704
293.092755
293.097229
293.102172
293.107632
293.117544
293.124715
293.132642
293.141401
293.15108
293.161169
293.18894
293.050101
293.050112
293.050133
293.050164
293.050207
293.05026
293.050323
293.050399
293.050485
293.050584
293.050695
293.05082
293.050959
293.051112
293.051282
293.05147
293.051676
293.051902
293.05215
293.052422
293.05272
293.053046
293.053402
293.053792
293.054219
293.054686
293.055197
293.055755
293.056366
293.057034
293.057766
293.058566
293.059442
293.060402
293.061452
293.062603
293.063864
293.065246
293.066761
293.068422
293.070244
293.072242
293.074435
293.076841
293.079482
293.082381
293.085564
293.08906
293.092899
293.097115
293.101746
293.106832
293.116174
293.122778
293.130038
293.138019
293.146792
293.156441
293.166415
293.19523
293.050678
293.050689
293.050711
293.050743
293.050787
293.050843
293.05091
293.05099
293.051082
293.051188
293.051308
293.051443
293.051594
293.051761
293.051946
293.052151
293.052376
293.052623
293.052895
293.053192
293.053518
293.053874
293.054264
293.05469
293.055155
293.055663
293.056218
293.056824
293.057485
293.058208
293.058996
293.059858
293.060799
293.061826
293.062948
293.064174
293.065514
293.066978
293.068577
293.070326
293.072238
293.074328
293.076613
293.079113
293.081847
293.084838
293.088111
293.091691
293.09561
293.099898
293.104591
293.113275
293.119324
293.125954
293.133219
293.141182
293.149909
293.159481
293.169329
293.198686
293.051132
293.051141
293.05116
293.051191
293.051233
293.051287
293.051355
293.051437
293.051533
293.051643
293.05177
293.051913
293.052073
293.052251
293.052449
293.052668
293.052909
293.053174
293.053464
293.053782
293.054131
293.054511
293.054927
293.055381
293.055876
293.056416
293.057005
293.057647
293.058347
293.059109
293.05994
293.060846
293.061833
293.062909
293.064081
293.065359
293.066752
293.06827
293.069926
293.071731
293.0737
293.075847
293.078189
293.080745
293.083533
293.086575
293.089896
293.09352
293.097477
293.101797
293.106513
293.115346
293.121399
293.128019
293.135257
293.143173
293.151832
293.161311
293.17103
293.200546
293.051507
293.051513
293.051528
293.051553
293.051591
293.051642
293.051709
293.051791
293.05189
293.052004
293.052136
293.052286
293.052454
293.052642
293.052851
293.053082
293.053337
293.053616
293.053923
293.054259
293.054626
293.055027
293.055465
293.055942
293.056461
293.057027
293.057644
293.058314
293.059044
293.059838
293.060702
293.061642
293.062664
293.063776
293.064985
293.066302
293.067733
293.069291
293.070987
293.072832
293.07484
293.077026
293.079406
293.081998
293.08482
293.087894
293.091243
293.094891
293.098866
293.103198
293.107921
293.116849
293.122889
293.129482
293.136679
293.144536
293.153116
293.162495
293.172086
293.201592
293.051834
293.051836
293.051843
293.051862
293.051894
293.051942
293.052008
293.05209
293.05219
293.052309
293.052445
293.052601
293.052777
293.052974
293.053193
293.053435
293.053701
293.053994
293.054316
293.054667
293.055051
293.055469
293.055926
293.056423
293.056963
293.057551
293.058191
293.058885
293.05964
293.060461
293.061352
293.062319
293.06337
293.064512
293.065752
293.067098
293.068561
293.07015
293.071877
293.073753
293.075791
293.078007
293.080415
293.083033
293.085879
293.088974
293.09234
293.096001
293.099985
293.104319
293.112523
293.118044
293.124061
293.130619
293.137766
293.145558
293.154055
293.16333
293.172791
293.202212
293.052132
293.052129
293.052128
293.052139
293.052166
293.052211
293.052275
293.052358
293.05246
293.052581
293.052723
293.052885
293.053067
293.053272
293.0535
293.053752
293.05403
293.054336
293.05467
293.055036
293.055435
293.055869
293.056343
293.056857
293.057417
293.058025
293.058685
293.059401
293.060179
293.061022
293.061937
293.062929
293.064006
293.065173
293.066439
293.067813
293.069302
293.070918
293.072671
293.074573
293.076637
293.078877
293.081308
293.083947
293.086812
293.089923
293.093302
293.096973
293.10096
293.105292
293.113558
293.119063
293.125053
293.131572
293.138668
293.146392
293.154803
293.163972
293.173304
293.202605
293.052417
293.052407
293.052398
293.052401
293.052422
293.052464
293.052527
293.05261
293.052714
293.052839
293.052985
293.053152
293.053342
293.053555
293.053792
293.054054
293.054342
293.054659
293.055006
293.055385
293.055798
293.056248
293.056738
293.057269
293.057847
293.058473
293.059152
293.059889
293.060687
293.061552
293.062489
293.063505
293.064604
293.065796
293.067086
293.068483
293.069997
293.071638
293.073415
293.07534
293.077427
293.079688
293.08214
293.084797
293.087679
293.090804
293.094193
293.097869
293.101858
293.106186
293.114503
293.119988
293.125949
293.132427
293.139468
293.147123
293.155446
293.164509
293.17371
293.202874
293.052696
293.05268
293.052662
293.052659
293.052675
293.052714
293.052775
293.052859
293.052965
293.053093
293.053243
293.053416
293.053613
293.053833
293.054078
293.05435
293.054649
293.054977
293.055336
293.055728
293.056156
293.05662
293.057125
293.057673
293.058268
293.058912
293.05961
293.060366
293.061185
293.062071
293.063029
293.064066
293.065188
293.066402
293.067715
293.069136
293.070673
293.072336
293.074136
293.076084
293.078192
293.080473
293.082943
293.085618
293.088514
293.09165
293.095048
293.098728
293.102716
293.107038
293.115402
293.120866
293.126795
293.13323
293.140215
293.147798
293.156032
293.164986
293.174058
293.203076
293.052978
293.052956
293.052931
293.05292
293.052931
293.052967
293.053027
293.053111
293.053219
293.053351
293.053506
293.053684
293.053887
293.054115
293.054369
293.05465
293.054959
293.055299
293.05567
293.056075
293.056516
293.056995
293.057516
293.05808
293.058692
293.059354
293.06007
293.060845
293.061683
293.062589
293.063569
293.064627
293.065771
293.067007
293.068343
293.069786
293.071346
293.073031
293.074853
293.076821
293.07895
293.08125
293.083738
293.086428
293.089337
293.092484
293.095888
293.099572
293.103558
293.107872
293.116281
293.121721
293.127617
293.134007
293.140934
293.148444
293.156588
293.165433
293.174373
293.203242
293.053269
293.053241
293.053208
293.053191
293.053198
293.05323
293.053289
293.053374
293.053484
293.053618
293.053778
293.053962
293.054171
293.054407
293.054669
293.05496
293.055279
293.05563
293.056014
293.056431
293.056886
293.05738
293.057916
293.058496
293.059125
293.059804
293.060539
293.061333
293.062191
293.063117
293.064117
293.065197
293.066363
293.06762
293.068978
293.070443
293.072025
293.073732
293.075575
293.077564
293.079711
293.08203
293.084534
293.087239
293.09016
293.093315
293.096725
293.100409
293.10439
293.112155
293.117158
293.122572
293.128432
293.134775
293.141641
293.149076
293.157128
293.165862
293.17467
293.203388
293.053574
293.053541
293.053501
293.053477
293.053478
293.053508
293.053566
293.053651
293.053762
293.0539
293.054064
293.054253
293.054469
293.054712
293.054983
293.055283
293.055613
293.055975
293.056371
293.056802
293.05727
293.057779
293.05833
293.058927
293.059572
293.06027
293.061023
293.061836
293.062713
293.06366
293.064681
293.065781
293.066968
293.068248
293.069627
293.071114
293.072717
293.074446
293.076309
293.078318
293.080485
293.082821
293.085341
293.088059
293.090992
293.094156
293.09757
293.101254
293.105231
293.113045
293.11803
293.123418
293.129241
293.135536
293.142342
293.149701
293.15766
293.166283
293.174958
293.203523
293.053896
293.053858
293.053811
293.05378
293.053777
293.053803
293.05386
293.053945
293.054058
293.054199
293.054367
293.054562
293.054784
293.055035
293.055314
293.055624
293.055965
293.056338
293.056746
293.05719
293.057672
293.058196
293.058762
293.059375
293.060038
293.060753
293.061525
293.062357
293.063254
293.06422
293.065262
293.066384
293.067592
293.068893
293.070294
293.071803
293.073427
293.075176
293.07706
293.079089
293.081274
293.083628
293.086163
293.088894
293.091837
293.095008
293.098426
293.102109
293.10608
293.113942
293.118908
293.124268
293.130053
293.136299
293.143042
293.150324
293.15819
293.166701
293.175241
293.203653
293.05424
293.054197
293.054143
293.054106
293.054097
293.05412
293.054174
293.054259
293.054374
293.054518
293.05469
293.05489
293.055119
293.055377
293.055665
293.055984
293.056336
293.05672
293.057141
293.057598
293.058095
293.058633
293.059215
293.059845
293.060524
293.061257
293.062047
293.062899
293.063815
293.064802
293.065864
293.067007
293.068237
293.069559
293.070982
293.072512
293.074157
293.075927
293.077831
293.079879
293.082082
293.084452
293.087001
293.089745
293.092697
293.095875
293.099295
293.102977
293.10694
293.11485
293.119795
293.125125
293.130871
293.137066
293.143745
293.150948
293.15872
293.167118
293.175523
293.20378
293.054608
293.054561
293.054499
293.054455
293.054441
293.05446
293.054512
293.054597
293.054713
293.054859
293.055035
293.05524
293.055476
293.055742
293.056038
293.056367
293.056729
293.057125
293.057558
293.058029
293.058539
293.059093
293.059691
293.060337
293.061034
293.061785
293.062593
293.063464
293.0644
293.065407
293.06649
293.067654
293.068905
293.070248
293.071692
293.073243
293.074909
293.0767
293.078623
293.080689
293.082909
293.085295
293.087858
293.090613
293.093574
293.096757
293.100179
293.103857
293.107813
293.115771
293.120693
293.125992
293.131697
293.137839
293.144453
293.151576
293.159252
293.167535
293.175804
293.203908
293.055004
293.054952
293.054884
293.054832
293.054812
293.054826
293.054876
293.05496
293.055077
293.055225
293.055405
293.055616
293.055857
293.056131
293.056436
293.056774
293.057147
293.057555
293.058
293.058484
293.059009
293.059577
293.060191
293.060854
293.061568
293.062337
293.063164
293.064054
293.06501
293.066038
293.067141
293.068326
293.069597
293.070962
293.072427
293.073999
293.075685
293.077495
293.079437
293.081521
293.083758
293.086158
293.088734
293.091499
293.094467
293.097654
293.101075
293.104748
293.112153
293.116709
293.121606
293.126872
293.132533
293.138621
293.145167
293.152208
293.159787
293.167954
293.176086
293.204035
293.055431
293.055374
293.055298
293.055239
293.055212
293.055222
293.055269
293.055351
293.055468
293.055619
293.055802
293.056018
293.056266
293.056546
293.05686
293.057208
293.057591
293.058011
293.058468
293.058966
293.059505
293.060088
293.060718
293.061398
293.062129
293.062916
293.063763
293.064672
293.065648
293.066695
293.067819
293.069024
293.070316
293.071702
293.073188
293.07478
293.076486
293.078316
293.080276
293.082378
293.08463
293.087045
293.089633
293.092407
293.095382
293.098572
293.101992
293.105659
293.113118
293.117656
293.122528
293.127759
293.133376
293.139408
293.145886
293.152843
293.160324
293.168375
293.176369
293.204164
293.055891
293.055829
293.055746
293.055679
293.055644
293.055649
293.055692
293.055773
293.05589
293.056043
293.056229
293.056449
293.056703
293.056991
293.057313
293.05767
293.058064
293.058495
293.058965
293.059476
293.06003
293.060629
293.061275
293.061971
293.06272
293.063525
293.064389
293.065318
293.066313
293.067381
293.068525
293.069751
293.071064
293.07247
293.073976
293.075588
293.077314
293.079163
293.081141
293.083259
293.085527
293.087955
293.090554
293.093337
293.096317
293.099509
293.102927
293.106588
293.114099
293.118618
293.123463
293.128658
293.134229
293.140203
293.146611
293.153484
293.160865
293.168798
293.176654
293.204294
293.056388
293.056321
293.05623
293.056154
293.056112
293.05611
293.056149
293.056228
293.056345
293.056498
293.056688
293.056912
293.057172
293.057467
293.057797
293.058164
293.058568
293.059011
293.059493
293.060018
293.060586
293.061199
293.061861
293.062574
293.06334
293.064164
293.065047
293.065994
293.067009
293.068097
293.069261
293.070507
293.071841
293.073267
293.074793
293.076425
293.07817
293.080037
293.082032
293.084166
293.086448
293.088889
293.091498
293.094289
293.097274
293.100466
293.10388
293.107533
293.115098
293.119596
293.124412
293.129569
293.135092
293.141008
293.147343
293.15413
293.16141
293.169225
293.176941
293.204426
293.056924
293.056853
293.056754
293.056668
293.056618
293.056609
293.056643
293.056719
293.056835
293.05699
293.057181
293.05741
293.057675
293.057977
293.058315
293.058691
293.059105
293.059559
293.060054
293.060592
293.061174
293.061803
293.062481
293.06321
293.063994
293.064835
293.065737
293.066703
293.067738
293.068845
293.070029
293.071295
293.072648
293.074095
293.07564
293.077291
293.079055
293.080939
293.082951
293.0851
293.087395
293.089847
293.092465
293.095262
293.098249
293.10144
293.104849
293.111934
293.116118
293.120593
293.125377
293.130495
293.135968
293.141822
293.148083
293.154783
293.16196
293.169655
293.177231
293.204561
293.057504
293.057428
293.05732
293.057224
293.057165
293.057148
293.057177
293.05725
293.057364
293.057519
293.057712
293.057945
293.058215
293.058523
293.058869
293.059254
293.059678
293.060144
293.060651
293.061202
293.061798
293.062442
293.063135
293.063881
293.064682
293.065541
293.066461
293.067446
293.0685
293.069626
293.07083
293.072116
293.073489
293.074955
293.076519
293.078189
293.079971
293.081871
293.083899
293.086062
293.08837
293.090832
293.093459
293.09626
293.099249
293.102439
293.105841
293.112985
293.117152
293.121602
293.126355
293.131431
293.136853
293.142644
293.148831
293.155441
293.162515
293.170089
293.177523
293.204698
293.05813
293.058049
293.057932
293.057826
293.057756
293.057732
293.057754
293.057822
293.057934
293.058089
293.058284
293.058519
293.058794
293.059108
293.059462
293.059856
293.06029
293.060766
293.061286
293.06185
293.06246
293.063118
293.063827
293.06459
293.065407
293.066284
293.067222
293.068226
293.069298
293.070444
293.071667
293.072972
293.074364
293.075849
293.077432
293.07912
293.080918
293.082835
293.084878
293.087055
293.089374
293.091845
293.094479
293.097285
293.100274
293.10346
293.106855
293.114057
293.118205
293.122629
293.127348
293.13238
293.137749
293.143476
293.149585
293.156105
293.163074
293.170526
293.177819
293.204838
293.058807
293.05872
293.058594
293.058477
293.058397
293.058363
293.058378
293.058441
293.05855
293.058703
293.0589
293.059138
293.059417
293.059736
293.060097
293.060499
293.060943
293.06143
293.061961
293.062538
293.063162
293.063835
293.064559
293.065338
293.066172
293.067066
293.068022
293.069044
293.070135
293.071299
293.072541
293.073865
293.075276
293.076779
293.07838
293.080085
293.0819
293.083832
293.085889
293.088078
293.090408
293.092887
293.095526
293.098334
293.101323
293.104504
293.10789
293.115151
293.119278
293.123674
293.128356
293.133344
293.138658
293.144318
293.150349
293.156776
293.163639
293.170968
293.178125
293.204982
293.059537
293.059446
293.05931
293.059181
293.059089
293.059045
293.059052
293.059109
293.059215
293.059366
293.059563
293.059803
293.060085
293.06041
293.060778
293.061188
293.061641
293.062138
293.062681
293.06327
293.063907
293.064594
293.065334
293.066128
293.066979
293.067889
293.068863
293.069902
293.071011
293.072194
293.073454
293.074796
293.076225
293.077746
293.079364
293.081085
293.082916
293.084862
293.086932
293.089132
293.091471
293.093957
293.096599
293.099409
293.102394
293.105568
293.112414
293.116272
293.120375
293.12474
293.129384
293.134324
293.13958
293.145173
293.151123
293.157457
293.164213
293.171415
293.17845
293.20513
293.060327
293.06023
293.060084
293.059943
293.059839
293.059784
293.059782
293.059832
293.059932
293.060082
293.060277
293.060519
293.060804
293.061134
293.061507
293.061925
293.062387
293.062894
293.063447
293.064048
293.064699
293.0654
293.066154
293.066963
293.06783
293.068757
293.069748
293.070805
293.071931
293.073132
293.074409
293.075769
293.077216
293.078753
293.080388
293.082124
293.083969
293.085929
293.08801
293.09022
293.092567
293.095059
293.097705
293.100514
293.103496
293.106662
293.113572
293.117411
293.121489
293.125822
293.130426
293.135318
293.140515
293.146037
293.151905
293.158146
293.164792
293.171867
293.178779
293.205282
293.061179
293.061077
293.060921
293.060767
293.06065
293.060583
293.06057
293.060613
293.060708
293.060853
293.061048
293.061289
293.061577
293.061911
293.06229
293.062714
293.063184
293.063701
293.064265
293.064878
293.06554
293.066255
293.067023
293.067847
293.06873
293.069673
293.070679
293.071753
293.072897
293.074114
293.075409
293.076786
293.078249
293.079802
293.081452
293.083203
293.085062
293.087034
293.089126
293.091345
293.093698
293.096194
293.098841
293.101648
293.104625
293.107781
293.114756
293.118574
293.122626
293.126925
293.131487
293.136327
293.141464
293.146914
293.152698
293.158843
293.165379
293.172325
293.179114
293.20544
293.0621
293.061993
293.061826
293.061659
293.061527
293.061447
293.061424
293.061457
293.061545
293.061686
293.061878
293.06212
293.062409
293.062746
293.06313
293.06356
293.064038
293.064563
293.065137
293.065761
293.066435
293.067163
293.067945
293.068783
293.06968
293.070639
293.071661
293.072751
293.073911
293.075144
293.076456
293.077848
293.079327
293.080895
293.082559
293.084324
293.086195
293.088178
293.090279
293.092505
293.094863
293.097362
293.100008
293.102811
293.105779
293.11239
293.115971
293.119767
293.123789
293.128051
293.132568
293.137355
293.142428
293.147804
293.153502
293.15955
293.165974
293.17279
293.179455
293.205604
293.063094
293.062981
293.062804
293.062623
293.062477
293.062382
293.062346
293.06237
293.06245
293.062586
293.062775
293.063015
293.063305
293.063644
293.064031
293.064467
293.064952
293.065485
293.066068
293.066702
293.067388
293.068128
293.068922
293.069774
293.070686
293.071659
293.072696
293.073801
293.074977
293.076226
293.077552
293.07896
293.080453
293.082036
293.083713
293.08549
293.087372
293.089364
293.091474
293.093706
293.096068
293.098567
293.101212
293.104009
293.106969
293.113649
293.117212
293.120983
293.124974
293.129198
293.133668
293.1384
293.143407
293.148707
293.154318
293.160266
293.166578
293.173262
293.179803
293.205775
293.064167
293.064049
293.063861
293.063666
293.063504
293.063394
293.063345
293.063357
293.063428
293.063557
293.063742
293.063979
293.064269
293.064609
293.065
293.06544
293.065931
293.066471
293.067063
293.067706
293.068403
293.069154
293.06996
293.070825
293.07175
293.072737
293.073789
293.074908
293.076098
293.077362
293.078702
293.080124
293.081631
293.083227
293.084916
293.086704
293.088595
293.090596
293.092712
293.094948
293.097312
293.099811
293.102452
293.105242
293.108191
293.114941
293.118483
293.122227
293.126185
293.130368
293.13479
293.139464
293.144404
293.149625
293.155146
293.160994
293.167191
293.173742
293.180159
293.205954
293.065326
293.065203
293.065004
293.064794
293.064615
293.06449
293.064426
293.064425
293.064486
293.064607
293.064786
293.06502
293.065308
293.065648
293.066041
293.066485
293.06698
293.067527
293.068126
293.068778
293.069484
293.070246
293.071064
293.07194
293.072877
293.073877
293.074942
293.076075
293.077278
293.078555
293.079909
293.081344
293.082863
293.08447
293.08617
293.087967
293.089867
293.091874
293.093994
293.096233
293.098597
293.101093
293.103727
293.106508
293.11294
293.116272
293.11979
293.123504
293.127426
293.131565
293.135936
293.140549
293.14542
293.150561
293.15599
293.161735
293.167815
293.174232
293.180524
293.206143
293.066576
293.066448
293.066239
293.066014
293.065818
293.065675
293.065595
293.06558
293.06563
293.065742
293.065913
293.066142
293.066427
293.066767
293.067161
293.067607
293.068106
293.068658
293.069264
293.069923
293.070638
293.071409
293.072237
293.073124
293.074073
293.075085
293.076162
293.077307
293.078522
293.079811
293.081177
293.082623
293.084153
293.08577
293.087479
293.089285
293.091191
293.093203
293.095326
293.097566
293.099928
293.10242
293.105047
293.107816
293.114324
293.117636
293.121128
293.124811
293.128694
293.132788
293.137105
293.141656
293.146455
293.151513
293.156851
293.162493
293.168452
293.174733
293.180899
293.206343
293.067925
293.067792
293.067572
293.067332
293.067119
293.066958
293.066861
293.066831
293.066867
293.066968
293.067131
293.067354
293.067635
293.067973
293.068365
293.068813
293.069315
293.069871
293.070482
293.071148
293.07187
293.072649
293.073486
293.074383
293.075342
293.076364
293.077451
293.078607
293.079834
293.081134
293.08251
293.083966
293.085505
293.087131
293.088847
293.090659
293.092569
293.094584
293.096708
293.098947
293.101305
293.10379
293.106406
293.112632
293.115754
293.119042
293.122506
293.126154
293.129996
293.134042
293.138302
293.142788
293.147512
293.152486
293.15773
293.163266
293.169103
293.175247
293.181287
293.206557
293.06938
293.069243
293.069013
293.068758
293.068526
293.068347
293.068231
293.068184
293.068206
293.068295
293.068448
293.068663
293.068938
293.069272
293.069663
293.07011
293.070613
293.071172
293.071787
293.072458
293.073186
293.073972
293.074817
293.075722
293.076689
293.077721
293.078818
293.079983
293.081219
293.082528
293.083913
293.085378
293.086924
293.088557
293.090279
293.092095
293.094009
293.096025
293.098148
293.100383
293.102736
293.105211
293.107816
293.114123
293.117225
293.120488
293.123921
293.127532
293.13133
293.135326
293.139527
293.143946
293.148593
293.15348
293.158629
293.164057
293.16977
293.175775
293.181689
293.206786
293.07095
293.070809
293.070569
293.070299
293.070049
293.06985
293.069715
293.06965
293.069656
293.06973
293.069872
293.070077
293.070345
293.070674
293.071061
293.071507
293.072009
293.072569
293.073186
293.073861
293.074593
293.075385
293.076236
293.077148
293.078122
293.079161
293.080266
293.081439
293.082683
293.084
293.085392
293.086863
293.088415
293.090052
293.091778
293.093596
293.095511
293.097525
293.099645
293.101874
293.104218
293.106682
293.112741
293.115669
293.118747
293.121981
293.12538
293.128952
293.132703
293.136645
293.140785
293.145133
293.1497
293.154498
293.159549
293.164868
293.170456
293.176321
293.182108
293.207033
293.072643
293.072499
293.07225
293.071965
293.071697
293.071476
293.071321
293.071237
293.071225
293.071284
293.071412
293.071606
293.071865
293.072186
293.072569
293.073011
293.073511
293.074071
293.074689
293.075365
293.0761
293.076895
293.077751
293.078668
293.079648
293.080693
293.081804
293.082983
293.084233
293.085555
293.086952
293.088428
293.089984
293.091624
293.093352
293.09517
293.097083
293.099094
293.101208
293.10343
293.105763
293.108214
293.114359
293.117266
293.120318
293.123522
293.126885
293.130413
293.134116
293.138001
293.142077
293.146352
293.150837
293.155545
293.160497
293.165703
293.171162
293.176885
293.182546
293.207302
293.074468
293.074322
293.074064
293.073765
293.073478
293.073237
293.073061
293.072955
293.072924
293.072966
293.073079
293.07326
293.073508
293.07382
293.074195
293.074632
293.075129
293.075686
293.076303
293.076979
293.077715
293.078512
293.07937
293.08029
293.081274
293.082323
293.083438
293.084621
293.085874
293.0872
293.0886
293.090078
293.091636
293.093276
293.095003
293.096819
293.098728
293.100733
293.102839
293.105049
293.107369
293.113297
293.116045
293.118927
293.121949
293.125119
293.128441
293.131924
293.135574
293.139399
293.143408
293.147608
293.152008
293.156625
293.161475
293.166564
293.171894
293.177473
293.183008
293.207597
293.076436
293.076288
293.076023
293.075711
293.075406
293.075144
293.074944
293.074817
293.074765
293.074788
293.074883
293.07505
293.075285
293.075586
293.075952
293.076381
293.076872
293.077425
293.078038
293.078712
293.079448
293.080244
293.081103
293.082024
293.083009
293.08406
293.085176
293.086361
293.087616
293.088943
293.090344
293.091822
293.093379
293.095017
293.09674
293.098551
293.100453
293.102449
293.104544
293.106741
293.112475
293.115074
293.117798
293.120652
293.123642
293.126774
293.130053
293.133487
293.137081
293.140844
293.144782
293.148903
293.153217
293.15774
293.162486
293.167456
293.172654
293.178088
293.183497
293.207922
293.078558
293.078408
293.078137
293.077813
293.07749
293.077207
293.076985
293.076835
293.07676
293.076762
293.076839
293.076988
293.077208
293.077496
293.07785
293.07827
293.078753
293.079299
293.079907
293.080577
293.081309
293.082103
293.082959
293.08388
293.084864
293.085914
293.08703
293.088214
293.089468
293.090794
293.092193
293.093668
293.095222
293.096855
293.098573
293.100376
293.102268
293.104254
293.106335
293.108515
293.114349
293.116925
293.119622
293.122446
293.1254
293.128492
293.131725
293.135106
293.138642
293.142339
293.146204
293.150243
293.154468
293.158895
293.163535
293.168383
293.173447
293.178734
293.184018
293.208283
293.080844
293.080694
293.080418
293.080083
293.079744
293.07944
293.079195
293.07902
293.078922
293.078902
293.078958
293.079088
293.07929
293.079563
293.079903
293.080311
293.080783
293.08132
293.08192
293.082583
293.08331
293.084099
293.084951
293.085867
293.086848
293.087895
293.089008
293.090189
293.091439
293.092761
293.094155
293.095625
293.097172
293.098798
293.100506
293.102298
293.104178
293.106148
293.108212
293.113879
293.116316
293.118865
293.121532
293.124321
293.127236
293.130283
293.133466
293.136792
293.140266
293.143893
293.147681
293.151636
293.155772
293.160101
293.164628
293.169351
293.174279
293.179457
293.184577
293.208687
293.083307
293.083158
293.082878
293.082534
293.08218
293.081856
293.081588
293.08139
293.081267
293.081222
293.081255
293.081364
293.081547
293.081801
293.082126
293.082519
293.082978
293.083503
293.084093
293.084746
293.085464
293.086245
293.087091
293.088
293.088975
293.090015
293.091122
293.092297
293.093541
293.094855
293.096242
293.097703
293.09924
293.100855
293.10255
293.104329
293.106193
293.108145
293.113666
293.115971
293.118381
293.1209
293.123533
293.126283
293.129155
293.132154
293.135284
293.13855
293.141958
293.145513
293.14922
293.153088
293.157131
293.16136
293.165771
293.170368
293.175157
293.180237
293.185183
293.209142
293.085961
293.085813
293.085532
293.085181
293.084814
293.084471
293.084181
293.083957
293.083809
293.083739
293.083747
293.083833
293.083994
293.084228
293.084534
293.084909
293.085353
293.085863
293.086439
293.087081
293.087787
293.088557
293.089393
293.090292
293.091258
293.092289
293.093386
293.094552
293.095786
293.09709
293.098466
293.099915
293.101439
293.103039
293.104719
293.10648
293.108324
293.11372
293.115898
293.118175
293.120555
293.12304
293.125634
293.128342
293.131168
293.134114
293.137187
293.14039
293.143728
293.147206
293.150831
293.154611
293.15856
293.162682
293.166974
293.171441
293.17609
293.181072
293.185842
293.209658
293.088819
293.088675
293.088393
293.088038
293.08766
293.087301
293.086989
293.086741
293.086567
293.08647
293.086452
293.086513
293.086649
293.086861
293.087145
293.0875
293.087925
293.088418
293.088978
293.089603
293.090295
293.091052
293.091873
293.09276
293.093713
293.094731
293.095816
293.096969
293.09819
293.09948
293.100841
293.102274
293.103782
293.105364
293.107024
293.108764
293.114054
293.11611
293.11826
293.120505
293.12285
293.125297
293.127849
293.130511
293.133285
293.136175
293.139186
293.142322
293.145587
293.148985