/*--------------------------------*- C++ -*----------------------------------*\
  =========                 |
  \\      /  F ield         | OpenFOAM: The Open Source CFD Toolbox
   \\    /   O peration     | Website:  https://openfoam.org
    \\  /    A nd           | Version:  11
     \\/     M anipulation  |
\*---------------------------------------------------------------------------*/
FoamFile
{
    format      ascii;
    class       volScalarField;
    location    "1.26739e-05";
    object      thermalPhaseChange:Tsat.gas_liquid;
}
// * * * * * * * * * * * * * * * * * * * * * * * * * * * * * * * * * * * * * //

dimensions      [0 0 0 1 0 0 0];

internalField   nonuniform List<scalar> 
120000
(
295.826657
295.826669
295.826691
295.826724
295.82677
295.826827
295.826897
295.826979
295.827075
295.827186
295.827312
295.827454
295.827613
295.827791
295.827988
295.828207
295.828449
295.828716
295.829011
295.829334
295.82969
295.83008
295.830508
295.830977
295.83149
295.832053
295.832669
295.833343
295.834081
295.834888
295.835772
295.836738
295.837796
295.838953
295.84022
295.841606
295.843124
295.844786
295.846606
295.848601
295.850787
295.853183
295.855812
295.858695
295.861859
295.865332
295.869144
295.873325
295.877908
295.882922
295.888393
295.894331
295.900728
295.907533
295.91463
295.921789
295.928601
295.934361
295.937905
295.943952
295.82999
295.830021
295.830084
295.830178
295.830304
295.830464
295.830658
295.830889
295.831156
295.831463
295.831812
295.832205
295.832644
295.833133
295.833676
295.834276
295.834937
295.835663
295.836461
295.837335
295.838291
295.839336
295.840477
295.841721
295.843076
295.844553
295.846159
295.847907
295.849806
295.851868
295.854107
295.856536
295.859169
295.862022
295.865111
295.868453
295.872065
295.875966
295.880173
295.884707
295.889584
295.894824
295.900441
295.906451
295.912865
295.919687
295.926918
295.934547
295.942551
295.950891
295.959506
295.968306
295.977167
295.985918
295.994335
296.002128
296.008936
296.01423
296.017485
296.025152
295.833997
295.834047
295.834148
295.834299
295.834503
295.83476
295.835073
295.835443
295.835873
295.836365
295.836924
295.837552
295.838254
295.839034
295.839899
295.840852
295.8419
295.843051
295.844311
295.845688
295.847191
295.848829
295.850611
295.85255
295.854656
295.856941
295.859419
295.862103
295.865008
295.868149
295.871543
295.875207
295.879158
295.883414
295.887994
295.892917
295.898202
295.903865
295.909927
295.916402
295.923304
295.930647
295.938438
295.946679
295.955369
295.964496
295.974039
295.983965
295.994227
296.004758
296.015468
296.026245
296.036943
296.047382
296.057341
296.06647
296.074441
296.080866
296.085294
296.094171
295.838108
295.838176
295.838311
295.838516
295.838791
295.839137
295.839558
295.840056
295.840634
295.841295
295.842044
295.842886
295.843825
295.844868
295.84602
295.847289
295.848682
295.850207
295.851874
295.853691
295.85567
295.857821
295.860156
295.862688
295.865431
295.868397
295.871603
295.875063
295.878795
295.882816
295.887143
295.891794
295.896787
295.902142
295.907878
295.914011
295.920561
295.927543
295.934973
295.942862
295.951222
295.960059
295.969373
295.97916
295.989408
296.000097
296.011195
296.022657
296.034423
296.046417
296.058539
296.070666
296.082646
296.094296
296.105307
296.115405
296.124264
296.131501
296.136667
296.146114
295.842044
295.842128
295.842295
295.842546
295.842884
295.843311
295.843828
295.844439
295.845148
295.845959
295.846876
295.847905
295.849051
295.850322
295.851724
295.853265
295.854954
295.8568
295.858812
295.861001
295.86338
295.865959
295.868751
295.871771
295.875033
295.878551
295.882341
295.886421
295.890806
295.895514
295.900563
295.905971
295.911757
295.917938
295.924531
295.931554
295.939023
295.946951
295.955351
295.964232
295.973601
295.983458
295.9938
296.004617
296.015892
296.027596
296.039693
296.052132
296.064845
296.077749
296.09074
296.10369
296.116442
296.128729
296.140318
296.150932
296.160247
296.167883
296.173398
296.183054
295.845707
295.845804
295.845998
295.846291
295.846684
295.84718
295.847781
295.848491
295.849313
295.850252
295.851314
295.852503
295.853826
295.855291
295.856904
295.858675
295.860611
295.862723
295.865022
295.867518
295.870223
295.87315
295.876311
295.879722
295.883396
295.887349
295.891596
295.896155
295.901041
295.906272
295.911865
295.917838
295.924207
295.93099
295.938202
295.945859
295.953975
295.96256
295.971626
295.981177
295.991218
296.001745
296.012751
296.024224
296.036139
296.048467
296.061164
296.074177
296.087435
296.100851
296.114319
296.127709
296.140788
296.153358
296.165188
296.176003
296.185485
296.19326
296.198898
296.208579
295.849086
295.849194
295.849412
295.849741
295.850182
295.850737
295.85141
295.852203
295.853122
295.854171
295.855354
295.856679
295.858151
295.859778
295.861567
295.863528
295.865669
295.868
295.870532
295.873277
295.876245
295.87945
295.882905
295.886623
295.89062
295.89491
295.899509
295.904433
295.909698
295.91532
295.921315
295.927701
295.934493
295.941706
295.949355
295.957453
295.966013
295.975043
295.98455
295.994539
296.005009
296.015956
296.027369
296.03923
296.051515
296.06419
296.077208
296.090511
296.104028
296.117669
296.131324
296.144863
296.158052
296.170697
296.182569
296.193401
296.202882
296.21065
296.216289
296.225899
295.852215
295.852334
295.852572
295.852931
295.853412
295.854018
295.854752
295.855617
295.856618
295.857759
295.859045
295.860484
295.86208
295.863842
295.865778
295.867896
295.870205
295.872715
295.875437
295.878382
295.881561
295.884988
295.888675
295.892636
295.896884
295.901435
295.906303
295.911504
295.917053
295.922966
295.929257
295.935943
295.943038
295.950555
295.958508
295.966909
295.975767
295.98509
295.994883
296.005147
296.015881
296.027076
296.038721
296.050794
296.06327
296.07611
296.089268
296.102683
296.116282
296.129973
296.143647
296.157173
296.170319
296.182896
296.194681
296.205413
296.214791
296.222466
296.228037
296.237523
295.855148
295.855275
295.855531
295.855916
295.856431
295.857081
295.857867
295.858793
295.859863
295.861082
295.862456
295.86399
295.865691
295.867567
295.869624
295.871873
295.87432
295.876978
295.879855
295.882963
295.886313
295.889918
295.89379
295.897943
295.902389
295.907143
295.912219
295.917631
295.923395
295.929525
295.936035
295.942939
295.95025
295.957982
295.966146
295.974752
295.983808
295.99332
296.003291
296.013722
296.024607
296.035937
296.047699
296.059871
296.072423
296.085317
296.098507
296.11193
296.125513
296.139167
296.152785
296.166169
296.17916
296.191569
296.203179
296.213736
296.222949
296.230479
296.235941
296.245274
295.857941
295.858076
295.858346
295.858754
295.8593
295.859987
295.860818
295.861797
295.862927
295.864214
295.865662
295.867278
295.869068
295.87104
295.873201
295.875559
295.878123
295.880904
295.88391
295.887153
295.890643
295.894394
295.898416
295.902722
295.907326
295.91224
295.917479
295.923056
295.928985
295.935279
295.941952
295.949016
295.956485
295.964369
295.972678
295.981421
295.990605
296.000235
296.010311
296.020831
296.031791
296.043179
296.054979
296.067169
296.079717
296.092584
296.105722
296.119069
296.132552
296.14608
296.159548
296.17276
296.18556
296.197766
296.209168
296.219519
296.228537
296.235899
296.241233
296.250399
295.860652
295.860793
295.861077
295.861504
295.862077
295.862797
295.863668
295.864693
295.865876
295.867221
295.868735
295.870423
295.872291
295.874346
295.876596
295.879048
295.881713
295.884598
295.887714
295.891071
295.894679
295.898551
295.902698
295.907131
295.911864
295.916909
295.922278
295.927986
295.934044
295.940465
295.947262
295.954447
295.96203
295.970022
295.978431
295.987266
295.99653
296.006228
296.016359
296.02692
296.037903
296.049297
296.061083
296.073238
296.08573
296.098519
296.111556
296.124779
296.138113
296.151472
296.164748
296.177752
296.19033
296.202306
296.213475
296.223599
296.232407
296.239587
296.244783
296.253773
295.863332
295.86348
295.863776
295.864221
295.864818
295.865568
295.866474
295.86754
295.868771
295.870169
295.871741
295.873493
295.875429
295.877558
295.879887
295.882423
295.885175
295.888152
295.891364
295.89482
295.89853
295.902506
295.906759
295.9113
295.916141
295.921295
295.926772
295.932586
295.938749
295.945271
295.952165
295.959441
295.96711
295.97518
295.983659
295.992552
296.001865
296.011598
296.021751
296.032318
296.04329
296.054656
296.066394
296.078482
296.090885
296.103564
296.116468
296.129536
296.142694
296.155855
296.168916
296.181689
296.194025
296.205753
296.216673
296.226558
296.235145
296.242135
296.247188
296.255999
295.86603
295.866183
295.86649
295.866952
295.86757
295.868348
295.869287
295.870391
295.871665
295.873112
295.874737
295.876547
295.878546
295.880742
295.883142
295.885754
295.888585
295.891644
295.894941
295.898485
295.902285
295.906353
295.910699
295.915334
295.920269
295.925515
295.931085
295.936988
295.943237
295.949842
295.956814
295.964162
295.971896
295.980022
295.988549
295.99748
296.006818
296.016564
296.026716
296.037266
296.048206
296.05952
296.07119
296.083188
296.095482
296.108031
296.120783
296.133678
296.146643
296.159591
296.172419
296.184945
296.197025
296.208492
296.219154
296.228791
296.237151
296.243947
296.248853
296.257482
295.868785
295.868944
295.869261
295.869738
295.870377
295.871181
295.872151
295.87329
295.874604
295.876096
295.877771
295.879634
295.881692
295.88395
295.886416
295.889097
295.892001
295.895135
295.89851
295.902134
295.906016
295.910167
295.914596
295.919314
295.924332
295.92966
295.935309
295.94129
295.947612
295.954286
295.961321
295.968727
295.97651
295.984679
295.993237
296.00219
296.011538
296.02128
296.031414
296.041932
296.052824
296.064073
296.075659
296.087557
296.099731
296.112142
296.124738
296.137461
296.150238
296.162986
296.175546
296.187798
296.1996
296.21079
296.221181
296.230562
296.238688
296.245286
296.250042
296.258489
295.871634
295.871798
295.872125
295.872617
295.873275
295.874103
295.875102
295.876275
295.877627
295.879162
295.880884
295.882798
295.88491
295.887227
295.889754
295.8925
295.895471
295.898676
295.902123
295.90582
295.909778
295.914004
295.918509
295.923303
295.928396
295.933797
295.939516
295.945564
295.951949
295.958681
295.965769
295.97322
295.981042
295.989239
295.997817
296.006777
296.016121
296.025847
296.035949
296.04642
296.057247
296.068416
296.079903
296.091682
296.103719
296.115972
296.128392
296.140917
296.153478
296.165992
296.178303
296.190293
296.201826
296.212745
296.222871
296.231998
296.239895
296.246297
296.250906
296.259171
295.874608
295.874775
295.875112
295.875618
295.876296
295.877146
295.878173
295.879379
295.880767
295.882343
295.884109
295.886072
295.888236
295.890608
295.893194
295.896001
295.899036
295.902307
295.905821
295.909587
295.913614
295.917911
295.922486
295.927349
295.932509
295.937976
295.943758
295.949865
295.956305
295.963087
295.970218
295.977705
295.985554
295.99377
296.002356
296.011313
296.020642
296.030338
296.040397
296.050809
296.061561
296.072636
296.084012
296.095661
296.107548
296.119633
296.131864
296.144182
296.156519
296.168791
296.180847
296.192573
296.203836
296.214484
296.224344
296.23322
296.240888
296.247096
296.25156
296.259644
295.877732
295.877904
295.87825
295.87877
295.879465
295.880339
295.881392
295.882629
295.884053
295.885667
295.887476
295.889485
295.891699
295.894124
295.896765
295.899631
295.902726
295.906059
295.909637
295.913468
295.917561
295.921923
295.926562
295.931489
295.936711
295.942237
295.948075
295.954234
295.960722
295.967545
295.974711
295.982226
295.990095
295.99832
296.006906
296.015851
296.025155
296.034813
296.044818
296.055162
296.065828
296.076801
296.088056
296.099566
296.111296
296.123203
296.135238
296.147343
296.159448
296.171473
296.183271
296.194729
296.205719
296.216095
296.225689
296.234314
296.241755
296.24777
296.25209
296.259993
295.881031
295.881208
295.881563
295.882096
295.882809
295.883704
295.884783
295.88605
295.887507
295.889159
295.891009
295.893063
295.895325
295.8978
295.900495
295.903415
295.906568
295.90996
295.913599
295.917491
295.921644
295.926067
295.930767
295.935752
295.94103
295.94661
295.952498
295.958703
295.965232
295.97209
295.979284
295.98682
295.9947
296.002928
296.011504
296.020429
296.0297
296.039312
296.049256
296.059523
296.070097
296.08096
296.092088
296.103453
296.115018
296.126743
296.138578
296.150464
296.162333
296.174107
296.185641
296.196827
296.207542
296.217643
296.226971
296.235344
296.242558
296.248382
296.252558
296.260282
295.884528
295.884709
295.885072
295.885618
295.886348
295.887264
295.888368
295.889664
295.891153
295.892841
295.894731
295.896827
295.899135
295.901658
295.904404
295.907377
295.910585
295.914033
295.917728
295.921677
295.925887
295.930367
295.935122
295.940161
295.94549
295.951118
295.957051
295.963296
295.969858
295.976745
295.983961
295.991509
295.999394
296.007616
296.016177
296.025075
296.034305
296.043863
296.05374
296.063924
296.0744
296.085148
296.096146
296.107363
296.118764
296.13031
296.14195
296.153628
296.165278
296.176776
296.188028
296.198928
296.209356
296.219175
296.228232
296.23635
296.243336
296.248969
296.253003
296.260547
295.888242
295.888427
295.888798
295.889356
295.890102
295.891038
295.892167
295.89349
295.895011
295.896734
295.898661
295.900798
295.903149
295.905719
295.908513
295.911536
295.914795
295.918295
295.922043
295.926046
295.930309
295.934841
295.939646
295.944734
295.950109
295.955779
295.961751
295.968029
295.97462
295.981528
295.988757
295.996311
296.004193
296.012402
296.020938
296.029799
296.03898
296.048475
296.058275
296.068366
296.078733
296.089356
296.10021
296.111267
296.122491
296.133841
296.145268
296.156717
296.168123
296.179362
296.190345
296.20097
296.21112
296.220664
296.229455
296.237325
296.244087
296.249532
296.253426
296.260793
295.892192
295.892381
295.89276
295.89333
295.894092
295.895047
295.896198
295.897548
295.899099
295.900855
295.902819
295.904994
295.907387
295.91
295.912839
295.915909
295.919216
295.922766
295.926563
295.930615
295.934927
295.939505
295.944357
295.949488
295.954903
295.96061
295.966614
295.972919
295.97953
295.986453
295.993689
296.001241
296.009111
296.017298
296.025801
296.034617
296.043741
296.053164
296.062877
296.072866
296.083115
296.093604
296.104307
296.115194
296.126232
296.137379
296.148587
296.1598
296.170956
296.181934
296.192647
296.202996
296.212869
296.22214
296.230667
296.23829
296.244831
296.250091
296.253848
296.261039
295.896398
295.896591
295.896977
295.897558
295.898335
295.899308
295.900482
295.901857
295.903436
295.905223
295.907221
295.909433
295.911864
295.914518
295.9174
295.920514
295.923866
295.92746
295.931303
295.935399
295.939755
295.944377
295.949269
295.954437
295.959887
295.965625
295.971654
295.977979
295.984605
295.991534
295.998769
296.006312
296.014163
296.022321
296.030783
296.039546
296.048604
296.057947
296.067566
296.077446
296.08757
296.097917
296.108462
296.119175
296.130021
296.14096
296.151943
296.162917
296.173818
296.18453
296.19497
296.20504
296.214635
296.223632
296.231895
296.239273
296.245594
296.250671
296.254292
296.261307
295.900877
295.901074
295.901467
295.902059
295.90285
295.903841
295.905035
295.906433
295.908039
295.909855
295.911885
295.914131
295.916599
295.919291
295.922212
295.925366
295.928759
295.932394
295.936278
295.940415
295.94481
295.949469
295.954396
295.959596
295.965075
295.970836
295.976884
295.983223
295.989856
295.996785
296.004011
296.011537
296.019361
296.027481
296.035895
296.044598
296.053582
296.062839
296.072357
296.082122
296.092116
296.102317
296.112702
296.12324
296.133896
296.144632
296.155399
296.166147
296.176771
296.187201
296.197354
296.207137
296.216445
296.225163
296.233161
296.240291
296.246393
296.251287
296.254773
296.261614
295.90565
295.90585
295.90625
295.906852
295.907655
295.908663
295.909876
295.911296
295.912927
295.91477
295.916829
295.919107
295.921608
295.924335
295.927291
295.930482
295.933912
295.937584
295.941504
295.945676
295.950105
295.954795
295.959751
295.964977
295.970477
295.976256
295.982316
295.988661
295.995292
296.002213
296.009423
296.016922
296.02471
296.032784
296.04114
296.049772
296.058673
296.067833
296.07724
296.086878
296.096731
296.106775
296.116987
296.127335
296.137787
296.148301
296.158834
296.169331
296.179695
296.189854
296.199728
296.209231
296.21826
296.226705
296.234441
296.241329
296.247216
296.25193
296.255285
296.261953
295.910736
295.910939
295.911345
295.911955
295.912771
295.913793
295.915024
295.916465
295.918118
295.919986
295.922072
295.924379
295.926909
295.929667
295.932656
295.935879
295.939341
295.943045
295.946996
295.951198
295.955655
295.960371
295.965349
295.970594
295.976109
295.981897
295.987962
295.994304
296.000927
296.00783
296.015015
296.02248
296.030223
296.038241
296.046529
296.055081
296.063889
296.072942
296.082228
296.091731
296.101432
296.11131
296.12134
296.131491
296.141729
296.152016
296.162307
296.17255
296.182648
296.192534
296.20213
296.211352
296.220103
296.228276
296.235753
296.242402
296.248076
296.252614
296.255839
296.262335
295.916154
295.916359
295.916771
295.91739
295.918217
295.919253
295.920499
295.921958
295.923632
295.925522
295.927632
295.929964
295.932521
295.935306
295.938322
295.941573
295.945063
295.948794
295.952771
295.956997
295.961476
295.966211
295.971205
295.976462
295.981984
295.987775
295.993836
296.000168
296.006773
296.013651
296.020801
296.028223
296.035912
296.043865
296.052077
296.060541
296.069247
296.078185
296.087342
296.096701
296.106244
296.115948
296.125789
296.135736
296.145756
296.15581
296.165854
296.175837
296.185667
296.195276
296.204591
296.21353
296.222001
296.229903
296.237122
296.243532
296.248995
296.253359
296.256455
296.262781
295.921926
295.922134
295.922551
295.923177
295.924013
295.925061
295.926321
295.927797
295.929488
295.931398
295.933528
295.935882
295.938462
295.94127
295.94431
295.947584
295.951096
295.954849
295.958845
295.963089
295.967583
295.972331
295.977334
295.982595
295.988118
295.993903
295.999951
296.006265
296.012845
296.019688
296.026796
296.034165
296.041791
296.049671
296.057799
296.066165
296.074762
296.083578
296.092599
296.101809
296.111189
296.120716
296.130367
296.140111
296.149916
296.159743
296.169551
296.179255
296.188799
296.198119
296.207144
296.215794
296.223981
296.231608
296.238567
296.244738
296.249992
296.254182
296.257151
296.263307
295.928073
295.928283
295.928705
295.929337
295.930182
295.93124
295.932512
295.934001
295.935708
295.937634
295.939782
295.942153
295.944752
295.947578
295.950637
295.953929
295.957458
295.961226
295.965237
295.969492
295.973994
295.978747
295.983751
295.989009
295.994523
296.000294
296.006322
296.012608
296.019152
296.025953
296.033007
296.040314
296.047868
296.055664
296.063695
296.071955
296.080431
296.089113
296.097987
296.107035
296.11624
296.125578
296.135024
296.14455
296.154123
296.163706
296.173256
296.182693
296.191962
296.201
296.20974
296.218106
296.226014
296.23337
296.240074
296.246011
296.251058
296.255078
296.257923
296.263911
295.934619
295.934831
295.935256
295.935894
295.936745
295.937812
295.939094
295.940594
295.942313
295.944252
295.946413
295.948799
295.951411
295.954252
295.957324
295.960628
295.964168
295.967946
295.971963
295.976223
295.980726
295.985476
295.990474
295.99572
296.001217
296.006965
296.012963
296.019213
296.025712
296.032459
296.039451
296.046685
296.054156
296.061858
296.069784
296.077926
296.086272
296.094811
296.103528
296.112406
296.121426
296.130566
296.139801
296.149101
296.158435
296.167767
296.177054
296.186219
296.195208
296.203963
296.212417
296.220498
296.228127
296.235215
296.241665
296.24737
296.252213
296.256065
296.258788
296.264609
295.941589
295.941802
295.942229
295.942871
295.943728
295.944801
295.946091
295.947599
295.949327
295.951275
295.953446
295.955842
295.958463
295.961313
295.964392
295.967703
295.971248
295.975028
295.979045
295.983302
295.987799
295.992538
295.997521
296.002747
296.008218
296.013933
296.019893
296.026095
296.03254
296.039224
296.046143
296.053295
296.060674
296.068273
296.076084
296.084099
296.092307
296.100695
296.109249
296.117951
296.126782
296.135721
296.144743
296.15382
296.16292
296.172008
296.181015
296.189892
296.19859
296.207052
296.215213
296.223005
296.230352
296.23717
296.243365
296.248838
296.253479
296.257165
296.259767
296.265422
295.949006
295.949221
295.94965
295.950295
295.951155
295.952232
295.953527
295.955041
295.956774
295.958728
295.960905
295.963305
295.965931
295.968784
295.971865
295.975176
295.978718
295.982494
295.986504
295.99075
295.995232
295.999952
296.00491
296.010107
296.015542
296.021216
296.027126
296.033272
296.039651
296.046261
296.053097
296.060156
296.06743
296.074914
296.0826
296.090476
296.098534
296.106759
296.115136
296.123649
296.132279
296.141003
296.149797
296.158634
296.167482
296.176308
296.185042
296.19364
296.202053
296.210226
296.218099
296.225607
296.232675
296.239226
296.245172
296.250417
296.254858
296.258382
296.260866
296.266356
295.9569
295.957115
295.957545
295.958191
295.959054
295.960133
295.96143
295.962945
295.964681
295.966636
295.968814
295.971215
295.973839
295.976689
295.979766
295.983071
295.986604
295.990368
295.994363
295.998589
296.003048
296.00774
296.012665
296.017823
296.023213
296.028834
296.034685
296.040764
296.047067
296.053592
296.060335
296.067289
296.074449
296.081807
296.089355
296.097083
296.10498
296.113031
296.121223
296.129538
296.137956
296.146457
296.155016
296.163605
296.172195
296.180752
296.189209
296.197524
296.205649
296.213532
296.221116
296.228338
296.23513
296.241416
296.247113
296.252133
296.256378
296.259741
296.262109
296.267435
295.965299
295.965514
295.965944
295.96659
295.967452
295.968531
295.969827
295.971342
295.973075
295.975028
295.977202
295.979597
295.982215
295.985057
295.988123
295.991414
295.994931
295.998675
296.002647
296.006846
296.011273
296.015928
296.02081
296.025919
296.031254
296.036813
296.042594
296.048595
296.054813
296.061243
296.06788
296.07472
296.081756
296.088979
296.096381
296.103951
296.111679
296.11955
296.12755
296.135662
296.143866
296.152142
296.160465
296.16881
296.177148
296.185418
296.193584
296.201604
296.209432
296.217018
296.224308
296.231242
296.237754
296.243774
296.249224
296.254019
296.258069
296.261274
296.263527
296.268691
295.974233
295.974447
295.974876
295.975521
295.976381
295.977457
295.97875
295.980259
295.981987
295.983933
295.986098
295.988483
295.991088
295.993915
295.996963
296.000234
296.003727
296.007443
296.011383
296.015545
296.019931
296.024539
296.029369
296.034419
296.039688
296.045175
296.050876
296.056788
296.062908
296.069231
296.075753
296.082467
296.089366
296.096442
296.103686
296.111087
296.118634
296.126312
296.134108
296.142003
296.14998
296.158017
296.16609
296.174174
296.182241
296.190232
296.198111
296.20584
296.213375
296.220667
296.227666
296.234314
296.240551
296.246308
296.251513
296.256088
296.259946
296.262995
296.265137
296.270138
295.983735
295.983948
295.984376
295.985017
295.985873
295.986943
295.988229
295.98973
295.991448
295.993382
295.995533
295.997902
296.000489
296.003293
296.006317
296.009559
296.013021
296.016701
296.0206
296.024717
296.029052
296.033603
296.038371
296.043352
296.048545
296.053947
296.059557
296.065369
296.071381
296.077587
296.083982
296.090559
296.097311
296.10423
296.111306
296.118529
296.125887
296.133365
296.14095
296.148625
296.15637
296.164166
296.17199
296.179817
296.187596
296.195294
296.202877
296.210306
296.217541
296.224535
296.231239
296.237601
296.24356
296.249056
296.254018
296.258373
296.262042
296.264938
296.266969
296.27181
295.99384
295.994052
295.994476
295.995113
295.995962
295.997025
295.9983
295.999789
296.001493
296.00341
296.005542
296.007888
296.01045
296.013226
296.016218
296.019424
296.022845
296.02648
296.030329
296.034392
296.038666
296.043151
296.047845
296.052746
296.057851
296.063159
296.068666
296.074367
296.080258
296.086335
296.09259
296.099018
296.105611
296.112361
296.119257
296.126289
296.133444
296.14071
296.148071
296.155511
296.163011
296.170551
296.17811
296.185662
296.193158
296.200567
296.207856
296.214989
296.221926
296.228624
296.235037
296.241114
296.246801
296.252037
296.25676
296.2609
296.264382
296.267128
296.269051
296.273733
296.004587
296.004797
296.005217
296.005847
296.006687
296.007739
296.009001
296.010474
296.012158
296.014053
296.01616
296.018479
296.021008
296.023749
296.026701
296.029863
296.033235
296.036817
296.040607
296.044605
296.048808
296.053216
296.057826
296.062637
296.067644
296.072846
296.078238
296.083817
296.089576
296.095512
296.101618
296.107887
296.11431
296.12088
296.127586
296.134419
296.141364
296.14841
296.155542
296.162743
296.169996
296.177281
296.184576
296.191838
296.199038
296.206147
296.213134
296.219963
296.226598
296.232997
296.239116
296.244908
296.250322
296.255301
296.259786
296.263712
296.267011
296.269609
296.271426
296.27595
296.016016
296.016223
296.016638
296.017259
296.018089
296.019126
296.020371
296.021824
296.023485
296.025353
296.027429
296.029713
296.032204
296.034902
296.037806
296.040916
296.044231
296.04775
296.051472
296.055395
296.059517
296.063838
296.068353
296.073062
296.07796
296.083044
296.08831
296.093754
296.09937
296.105153
296.111097
296.117193
296.123435
296.129813
296.136317
296.142937
296.14966
296.156473
296.163362
296.170311
296.177301
296.184315
296.19133
296.198305
296.205212
296.212024
296.21871
296.225238
296.231573
296.237675
296.243503
296.249013
296.254156
296.258881
296.263132
296.266848
296.269967
296.27242
296.274133
296.278501
296.028172
296.028376
296.028784
296.029396
296.030212
296.031232
296.032456
296.033885
296.035517
296.037353
296.039393
296.041636
296.044082
296.04673
296.049579
296.052628
296.055877
296.059324
296.062968
296.066807
296.070838
296.075061
296.079471
296.084067
296.088845
296.0938
296.09893
296.104228
296.10969
296.11531
296.121081
296.126996
296.133046
296.139223
296.145517
296.151917
296.158411
296.164987
296.171629
296.178322
296.18505
296.191794
296.198514
296.205188
296.211792
296.218297
296.224676
296.230898
296.236928
296.24273
296.248266
296.253493
296.258367
296.262839
296.266858
296.270367
296.273308
296.275618
296.277229
296.281442
296.041105
296.041305
296.041705
296.042305
296.043105
296.044105
296.045305
296.046705
296.048304
296.050103
296.052101
296.054296
296.05669
296.05928
296.062065
296.065046
296.06822
296.071586
296.075142
296.078887
296.082817
296.086931
296.091226
296.095698
296.100344
296.10516
296.110141
296.115283
296.120579
296.126024
296.131611
296.137333
296.143182
296.149147
296.155221
296.161392
296.167648
296.173976
296.180364
296.186795
296.193253
296.199703
296.206125
296.212495
296.218792
296.22499
296.23106
296.236974
296.2427
296.248203
296.253448
296.258395
296.263002
296.267224
296.271013
296.274319
296.277086
296.279255
296.280767
296.284825
296.054869
296.055064
296.055455
296.056041
296.056823
296.0578
296.058972
296.060339
296.061901
296.063656
296.065606
296.067747
296.070081
296.072606
296.075321
296.078224
296.081314
296.08459
296.088048
296.091689
296.095507
296.099502
296.10367
296.108007
296.112509
296.117174
296.121994
296.126967
296.132085
296.137343
296.142734
296.14825
296.153884
296.159625
296.165465
296.171393
296.177397
296.183465
296.189583
296.195737
296.20191
296.208068
296.214192
296.220262
296.226254
296.232144
296.237908
296.243516
296.24894
296.254148
296.259105
296.263775
296.268118
296.272095
296.275659
296.278765
296.281361
296.283394
296.284809
296.288713
296.069526
296.069716
296.070097
296.070667
296.071428
296.072379
296.07352
296.07485
296.076369
296.078076
296.079971
296.082053
296.08432
296.086773
296.089408
296.092226
296.095224
296.0984
296.101752
296.105278
296.108976
296.112841
296.116872
296.121064
296.125413
296.129915
296.134566
296.139359
296.14429
296.149351
296.154537
296.159839
296.165249
296.170759
296.176359
296.182039
296.187787
296.193591
296.199439
296.205315
296.211189
296.217043
296.22286
296.228619
296.234299
296.239878
296.24533
296.250631
296.255751
296.260662
296.265332
296.269726
296.273808
296.277541
296.280884
296.283792
296.28622
296.28812
296.289439
296.293192
296.085145
296.08533
296.085699
296.086252
296.08699
296.087911
296.089017
296.090306
296.091778
296.093431
296.095267
296.097282
296.099477
296.101849
296.104399
296.107123
296.11002
296.113088
296.116325
296.119728
296.123294
296.127021
296.130904
296.134941
296.139127
296.143457
296.147927
296.152532
296.157265
296.16212
296.16709
296.172169
296.177347
296.182617
296.187969
296.193392
296.198877
296.20441
296.20998
296.215558
296.221129
296.226676
296.232182
296.237628
296.242995
296.24826
296.253401
296.258393
296.263211
296.267827
296.272211
296.276332
296.280156
296.283649
296.286773
296.289488
296.291752
296.29352
296.294747
296.298349
296.101806
296.101984
296.10234
296.102874
296.103586
296.104476
296.105543
296.106787
296.108207
296.109802
296.111572
296.113515
296.11563
296.117916
296.120372
296.122994
296.125783
296.128734
296.131847
296.135117
296.138544
296.142122
296.145849
296.14972
296.153733
296.157881
296.162161
296.166566
296.171092
296.175731
296.180477
296.185323
296.190261
296.195282
296.200377
296.205537
296.21075
296.216006
296.221278
296.226554
296.231817
296.237054
296.242247
296.247379
296.252431
296.257382
296.262212
296.266897
296.271414
296.275737
296.279838
296.28369
296.28726
296.290517
296.293426
296.295952
296.298055
296.299696
296.300833
296.304285
296.119599
296.11977
296.120112
296.120626
296.12131
296.122165
296.12319
296.124385
296.125749
296.127281
296.128979
296.130844
296.132874
296.135067
296.137421
296.139935
296.142606
296.145433
296.148413
296.151543
296.154819
296.15824
296.161801
296.165499
296.169328
296.173285
296.177365
296.181562
296.185871
296.190286
296.194799
296.199403
296.204092
296.208856
296.213687
296.218576
296.223511
296.228471
296.233441
296.23841
296.243364
296.248288
296.253166
296.257983
296.262719
296.267357
296.271877
296.276258
296.280476
296.284509