/*--------------------------------*- C++ -*----------------------------------*\
  =========                 |
  \\      /  F ield         | OpenFOAM: The Open Source CFD Toolbox
   \\    /   O peration     | Website:  https://openfoam.org
    \\  /    A nd           | Version:  11
     \\/     M anipulation  |
\*---------------------------------------------------------------------------*/
FoamFile
{
    format      ascii;
    class       volScalarField;
    location    "4.07967e-06";
    object      p_rgh;
}
// * * * * * * * * * * * * * * * * * * * * * * * * * * * * * * * * * * * * * //

dimensions      [1 -1 -2 0 0 0 0];

internalField   nonuniform List<scalar> 
120000
(
6099115.82
6099116
6099116.36
6099116.89
6099117.61
6099118.53
6099119.66
6099121
6099122.59
6099124.43
6099126.56
6099129
6099131.78
6099134.95
6099138.54
6099142.61
6099147.21
6099152.4
6099158.27
6099164.89
6099172.36
6099180.78
6099190.29
6099201.02
6099213.14
6099226.83
6099242.3
6099259.8
6099279.59
6099302.02
6099327.43
6099356.27
6099389.02
6099426.24
6099468.61
6099516.9
6099572.01
6099635.01
6099707.14
6099789.88
6099885.01
6099994.62
6100121.26
6100268
6100438.62
6100637.73
6100871.09
6101145.91
6101471.34
6101859.05
6102324.16
6102886.44
6103572.03
6104415.82
6105464.94
6106783.65
6108460.38
6110617.96
6113428.3
6117133.69
6099503.32
6099503.84
6099504.88
6099506.47
6099508.61
6099511.33
6099514.67
6099518.68
6099523.4
6099528.9
6099535.24
6099542.52
6099550.82
6099560.27
6099570.99
6099583.11
6099596.82
6099612.3
6099629.76
6099649.45
6099671.65
6099696.67
6099724.87
6099756.67
6099792.52
6099832.96
6099878.6
6099930.12
6099988.32
6100054.09
6100128.47
6100212.65
6100307.98
6100416.03
6100538.58
6100677.72
6100835.84
6101015.7
6101220.51
6101454
6101720.5
6102025.06
6102373.57
6102772.95
6103231.3
6103758.12
6104364.64
6105064.04
6105871.95
6106806.79
6107890.34
6109148.35
6110611.18
6112314.52
6114300.14
6116616.52
6119319.28
6122471.13
6126140.81
6130400.32
6099747.98
6099748.83
6099750.54
6099753.14
6099756.65
6099761.12
6099766.6
6099773.17
6099780.91
6099789.92
6099800.31
6099812.22
6099825.8
6099841.24
6099858.72
6099878.48
6099900.79
6099925.94
6099954.27
6099986.15
6100022.03
6100062.39
6100107.78
6100158.83
6100216.26
6100280.86
6100353.56
6100435.38
6100527.5
6100631.25
6100748.15
6100879.9
6101028.47
6101196.08
6101385.24
6101598.83
6101840.13
6102112.88
6102421.32
6102770.31
6103165.38
6103612.85
6104119.93
6104694.83
6105346.95
6106086.97
6106927.08
6107881.15
6108964.95
6110196.37
6111595.63
6113185.59
6114991.92
6117043.34
6119371.85
6122012.8
6125005.01
6128390.68
6132215.3
6136527.21
6099906.74
6099907.9
6099910.24
6099913.79
6099918.59
6099924.7
6099932.2
6099941.17
6099951.73
6099964.01
6099978.15
6099994.35
6100012.79
6100033.71
6100057.37
6100084.07
6100114.15
6100147.99
6100186.02
6100228.72
6100276.65
6100330.43
6100390.74
6100458.38
6100534.23
6100619.28
6100714.65
6100821.61
6100941.58
6101076.15
6101227.12
6101396.54
6101586.67
6101800.1
6102039.72
6102308.8
6102611.01
6102950.5
6103331.91
6103760.5
6104242.15
6104783.5
6105392
6106076
6106844.89
6107709.19
6108680.67
6109772.48
6110999.34
6112377.62
6113925.54
6115663.35
6117613.47
6119800.69
6122252.36
6124998.57
6128072.36
6131509.96
6135350.98
6139638.58
6100013.72
6100015.18
6100018.1
6100022.53
6100028.52
6100036.13
6100045.46
6100056.63
6100069.75
6100084.99
6100102.52
6100122.56
6100145.35
6100171.15
6100200.27
6100233.07
6100269.93
6100311.31
6100357.69
6100409.65
6100467.8
6100532.86
6100605.62
6100686.96
6100777.89
6100879.5
6100993.05
6101119.93
6101261.7
6101420.11
6101597.11
6101794.89
6102015.89
6102262.84
6102538.79
6102847.15
6103191.74
6103576.81
6104007.09
6104487.9
6105025.13
6105625.37
6106295.94
6107045
6107881.64
6108815.93
6109859.08
6111023.53
6112323.06
6113772.93
6115390.05
6117193.11
6119202.77
6121441.82
6123935.41
6126711.29
6129800.02
6133235.29
6137054.18
6141297.39
6100089.46
6100091.17
6100094.62
6100099.85
6100106.91
6100115.88
6100126.87
6100139.99
6100155.41
6100173.28
6100193.83
6100217.26
6100243.86
6100273.93
6100307.8
6100345.86
6100388.55
6100436.35
6100489.8
6100549.53
6100616.2
6100690.58
6100773.53
6100865.99
6100969.02
6101083.81
6101211.66
6101354.06
6101512.63
6101689.19
6101885.76
6102104.59
6102348.2
6102619.37
6102921.2
6103257.12
6103630.97
6104046.99
6104509.9
6105024.94
6105597.92
6106235.28
6106944.16
6107732.48
6108609
6109583.43
6110666.52
6111870.14
6113207.44
6114692.94
6116342.69
6118174.42
6120207.7
6122464.15
6124967.6
6127744.4
6130823.56
6134237.16
6138020.51
6142212.45
6100146.38
6100148.33
6100152.26
6100158.2
6100166.22
6100176.42
6100188.89
6100203.77
6100221.23
6100241.45
6100264.65
6100291.09
6100321.03
6100354.82
6100392.82
6100435.42
6100483.11
6100536.39
6100595.83
6100662.09
6100735.88
6100817.99
6100909.32
6101010.85
6101123.69
6101249.05
6101388.28
6101542.9
6101714.57
6101905.15
6102116.68
6102351.44
6102611.96
6102901.03
6103221.76
6103577.57
6103972.26
6104410.05
6104895.57
6105434
6106031.01
6106692.92
6107426.69
6108240.01
6109141.41
6110140.27
6111246.99
6112473.03
6113831.05
6115335.03
6117000.4
6118844.18
6120885.16
6123144.05
6125643.74
6128409.43
6131468.97
6134853.03
6138595.44
6142733.36
6100192.13
6100194.3
6100198.66
6100205.25
6100214.16
6100225.46
6100239.27
6100255.75
6100275.05
6100297.38
6100322.96
6100352.07
6100384.99
6100422.08
6100463.7
6100510.3
6100562.35
6100620.39
6100685.01
6100756.89
6100836.75
6100925.43
6101023.84
6101132.98
6101253.98
6101388.09
6101536.67
6101701.26
6101883.54
6102085.37
6102308.83
6102556.19
6102829.97
6103132.98
6103468.27
6103839.28
6104249.75
6104703.84
6105206.13
6105761.71
6106376.14
6107055.62
6107806.95
6108637.64
6109555.98
6110571.12
6111693.16
6112933.2
6114303.51
6115817.62
6117490.44
6119338.4
6121379.61
6123634.05
6126123.7
6128872.83
6131908.15
6135259.11
6138958.13
6143040.76
6100231.52
6100233.89
6100238.65
6100245.85
6100255.57
6100267.9
6100282.96
6100300.9
6100321.89
6100346.16
6100373.93
6100405.47
6100441.11
6100481.2
6100526.11
6100576.31
6100632.29
6100694.59
6100763.83
6100840.7
6100925.94
6101020.41
6101125.02
6101240.8
6101368.9
6101510.57
6101667.2
6101840.33
6102031.65
6102243.03
6102476.55
6102734.47
6103019.32
6103333.87
6103681.19
6104064.65
6104487.97
6104955.25
6105471.03
6106040.27
6106668.49
6107361.73
6108126.66
6108970.64
6109901.75
6110928.91
6112061.94
6113311.66
6114689.98
6116210
6117886.16
6119734.36
6121772.09
6124018.61
6126495.11
6129224.92
6132233.72
6135549.77
6139204.12
6143230.79
6100267.66
6100270.22
6100275.36
6100283.14
6100293.63
6100306.93
6100323.17
6100342.5
6100365.1
6100391.2
6100421.03
6100454.87
6100493.06
6100535.95
6100583.95
6100637.51
6100697.13
6100763.39
6100836.91
6100918.38
6101008.58
6101108.35
6101218.64
6101340.49
6101475.04
6101623.57
6101787.47
6101968.29
6102167.73
6102387.66
6102630.15
6102897.46
6103192.12
6103516.87
6103874.76
6104269.14
6104703.67
6105182.42
6105709.85
6106290.87
6106930.88
6107635.81
6108412.22
6109267.28
6110208.91
6111245.8
6112387.54
6113644.63
6115028.65
6116552.31
6118229.61
6120075.91
6122108.12
6124344.82
6126806.42
6129515.37
6132496.32
6135776.39
6139385.32
6143355.63
6100302.63
6100305.37
6100310.89
6100319.24
6100330.48
6100344.73
6100362.12
6100382.8
6100406.96
6100434.83
6100466.66
6100502.73
6100543.38
6100588.99
6100639.95
6100696.74
6100759.88
6100829.94
6100907.55
6100993.43
6101088.35
6101193.17
6101308.86
6101436.46
6101577.12
6101732.13
6101902.89
6102090.94
6102298
6102525.93
6102776.81
6103052.88
6103356.66
6103690.88
6104058.56
6104463.02
6104907.88
6105397.17
6105935.26
6106527.01
6107177.72
6107893.21
6108679.91
6109544.84
6110495.73
6111541.08
6112690.21
6113953.35
6115341.74
6116867.72
6118544.84
6120387.96
6122413.41
6124639.1
6127084.7
6129771.77
6132724.01
6135967.38
6139530.36
6143444.02
6100337.88
6100340.81
6100346.7
6100355.61
6100367.61
6100382.8
6100401.33
6100423.36
6100449.08
6100478.71
6100512.52
6100550.81
6100593.9
6100642.19
6100696.09
6100756.08
6100822.68
6100896.48
6100978.12
6101068.33
6101167.88
6101277.66
6101398.63
6101531.84
6101678.47
6101839.79
6102017.21
6102212.3
6102426.74
6102662.43
6102921.4
6103205.93
6103518.5
6103861.82
6104238.89
6104652.99
6105107.72
6105607.03
6106155.26
6106757.17
6107417.96
6108143.38
6108939.69
6109813.77
6110773.19
6111826.21
6112981.93
6114250.28
6115642.19
6117169.61
6118845.67
6120684.73
6122702.54
6124916.38
6127345.16
6130009.61
6132932.45
6136138.55
6139655.17
6143511.95
6100374.48
6100377.6
6100383.87
6100393.35
6100406.11
6100422.27
6100441.96
6100465.35
6100492.63
6100524.06
6100559.87
6100600.39
6100645.96
6100696.95
6100753.81
6100817.01
6100887.1
6100964.66
6101050.34
6101144.89
6101249.08
6101363.82
6101490.06
6101628.87
6101781.44
6101949.04
6102133.08
6102335.14
6102556.9
6102800.25
6103067.23
6103360.09
6103681.3
6104033.56
6104419.83
6104843.37
6105307.73
6105816.81
6106374.88
6106986.62
6107657.15
6108392.1
6109197.6
6110080.38
6111047.83
6112108
6113269.73
6114542.71
6115937.51
6117465.72
6119140.04
6120974.35
6122983.84
6125185.13
6127596.42
6130237.61
6133130.47
6136298.83
6139768.71
6143568.39
6100413.25
6100416.57
6100423.23
6100433.29
6100446.83
6100463.98
6100484.85
6100509.64
6100538.54
6100571.79
6100609.67
6100652.47
6100700.56
6100754.32
6100814.2
6100880.68
6100954.31
6101035.69
6101125.49
6101224.44
6101333.34
6101453.09
6101584.67
6101729.14
6101887.7
6102061.62
6102252.33
6102461.39
6102690.5
6102941.52
6103216.5
6103517.68
6103847.5
6104208.65
6104604.06
6105036.95
6105510.83
6106029.54
6106597.28
6107218.67
6107898.71
6108642.93
6109457.32
6110348.48
6111323.58
6112390.49
6113557.81
6114834.92
6116232.1
6117760.56
6119432.56
6121261.52
6123262.06
6125450.19
6127843.38
6130460.73
6133323.09
6136453.24
6139876.04
6143618.43
6100454.86
6100458.38
6100465.44
6100476.11
6100490.47
6100508.63
6100530.74
6100556.97
6100587.54
6100622.67
6100662.67
6100707.83
6100758.51
6100815.12
6100878.1
6100947.95
6101025.22
6101110.53
6101204.53
6101307.99
6101421.7
6101546.57
6101683.59
6101833.82
6101998.46
6102178.81
6102376.28
6102592.42
6102828.95
6103087.71
6103370.75
6103680.29
6104018.76
6104388.81
6104793.36
6105235.57
6105718.92
6106247.19
6106824.51
6107455.4
6108144.8
6108898.08
6109721.14
6110620.4
6111602.85
6112676.15
6113848.65
6115129.47
6116528.56
6118056.75
6119725.91
6121548.95
6123539.97
6125714.35
6128088.86
6130681.81
6133513.16
6136604.67
6139980.06
6143664.97
6100499.9
6100503.63
6100511.11
6100522.41
6100537.6
6100556.82
6100580.21
6100607.94
6100640.24
6100677.33
6100719.52
6100767.12
6100820.49
6100880.04
6100946.23
6101019.56
6101100.58
6101189.92
6101288.26
6101396.34
6101514.99
6101645.11
6101787.69
6101943.81
6102114.67
6102301.56
6102505.9
6102729.25
6102973.29
6103239.9
6103531.08
6103849.06
6104196.23
6104575.23
6104988.94
6105440.48
6105933.28
6106471.05
6107057.88
6107698.18
6108396.79
6109158.98
6109990.49
6110897.59
6111887.1
6112966.47
6114143.79
6115427.91
6116828.44
6118355.89
6120021.68
6121838.25
6123819.18
6125979.23
6128334.5
6130902.51
6133702.34
6136754.78
6140082.42
6143709.66
6100548.9
6100552.84
6100560.76
6100572.71
6100588.79
6100609.11
6100633.83
6100663.12
6100697.21
6100736.34
6100780.81
6100830.94
6100887.1
6100949.7
6101019.21
6101096.13
6101181.03
6101274.53
6101377.33
6101490.18
6101613.9
6101749.41
6101897.69
6102059.84
6102237.06
6102430.63
6102641.97
6102872.65
6103124.34
6103398.9
6103698.33
6104024.82
6104380.77
6104768.78
6105191.68
6105652.57
6106154.81
6106702.06
6107298.32
6107947.93
6108655.62
6109426.55
6110266.31
6111181.02
6112177.31
6113262.4
6114444.17
6115731.17
6117132.71
6118658.92
6120320.82
6122130.38
6124100.65
6126245.8
6128581.26
6131123.78
6133891.59
6136904.52
6140184.09
6143753.48
6100602.38
6100606.55
6100614.93
6100627.56
6100644.55
6100666.02
6100692.12
6100723.04
6100759
6100800.25
6100847.09
6100899.84
6100958.89
6101024.65
6101097.6
6101178.24
6101267.15
6101364.96
6101472.36
6101590.11
6101719.05
6101860.09
6102014.23
6102182.56
6102366.28
6102566.67
6102785.16
6103023.3
6103282.76
6103565.39
6103873.17
6104208.28
6104573.08
6104970.15
6105402.28
6105872.53
6106384.2
6106940.89
6107546.51
6108205.33
6108921.98
6109701.46
6110549.27
6111471.33
6112474.1
6113564.6
6114750.44
6116039.9
6117441.98
6118966.46
6120623.93
6122425.93
6124384.97
6126514.64
6128829.7
6131346.18
6134081.48
6137054.47
6140285.64
6143796.99
6100660.87
6100665.28
6100674.12
6100687.47
6100705.42
6100728.09
6100755.63
6100788.24
6100826.14
6100869.59
6100918.89
6100974.37
6101036.42
6101105.47
6101181.97
6101266.46
6101359.51
6101461.76
6101573.9
6101696.71
6101831.02
6101977.75
6102137.9
6102312.56
6102502.92
6102710.28
6102936.06
6103181.79
6103449.15
6103739.96
6104056.19
6104400
6104773.73
6105179.91
6105621.31
6106100.93
6106622.01
6107188.09
6107803.01
6108470.93
6109196.37
6109984.24
6110839.86
6111769.01
6112777.96
6113873.5
6115063.02
6116354.52
6117756.67
6119278.9
6120931.41
6122725.27
6124672.5
6126786.1
6129080.2
6131570.09
6134272.36
6137204.98
6140387.42
6143840.55
6100724.91
6100729.56
6100738.9
6100753
6100771.94
6100795.85
6100824.89
6100859.26
6100899.18
6100944.92
6100996.78
6101055.1
6101120.26
6101192.69
6101272.88
6101361.35
6101458.68
6101565.51
6101682.55
6101810.56
6101950.39
6102102.96
6102269.26
6102450.4
6102647.56
6102862.04
6103095.24
6103348.69
6103624.07
6103923.16
6104247.95
6104600.54
6104983.26
6105398.6
6105849.29
6106338.27
6106868.73
6107444.15
6108068.27
6108745.16
6109479.25
6110275.3
6111138.5
6112074.46
6113089.26
6114189.49
6115382.28
6116675.36
6118077.09
6119596.55
6121243.54
6123028.69
6124963.51
6127060.45
6129332.99
6131795.73
6134464.46
6137356.28
6140489.66
6143884.37
6100795.08
6100799.99
6100809.84
6100824.71
6100844.68
6100869.89
6100900.5
6100936.69
6100978.72
6101026.83
6101081.34
6101142.59
6101210.98
6101286.93
6101370.93
6101463.51
6101565.25
6101676.81
6101798.88
6101932.24
6102077.74
6102236.3
6102408.91
6102596.67
6102800.77
6103022.5
6103263.26
6103524.56
6103808.07
6104115.56
6104448.98
6104810.43
6105202.19
6105626.72
6106086.71
6106585.03
6107124.84
6107709.51
6108342.73
6109028.46
6109771.01
6110575.02
6111445.54
6112388.01
6113408.33
6114512.85
6115708.49
6117002.68
6118403.49
6119919.64
6121560.54
6123336.39
6125258.19
6127337.85
6129588.24
6132023.26
6134657.94
6137508.51
6140592.51
6143928.62
6100871.99
6100877.17
6100887.56
6100903.23
6100924.27
6100950.83
6100983.06
6101021.15
6101065.36
6101115.93
6101173.19
6101237.49
6101309.21
6101388.79
6101476.72
6101573.55
6101679.84
6101796.26
6101923.52
6102062.38
6102213.69
6102378.38
6102557.45
6102751.98
6102963.16
6103192.27
6103440.71
6103709.98
6104001.72
6104317.7
6104659.83
6105030.2
6105431.04
6105864.78
6106334.06
6106841.7
6107390.79
6107984.63
6108626.81
6109321.22
6110072.03
6110883.77
6111761.34
6112710
6113735.46
6114843.88
6116041.91
6117336.73
6118736.09
6120248.37
6121882.59
6123648.53
6125556.7
6127618.46
6129846.09
6132252.82
6134852.92
6137661.81
6140696.08
6143973.41
6100956.32
6100961.77
6100972.72
6100989.23
6101011.39
6101039.34
6101073.25
6101113.32
6101159.78
6101212.9
6101273.01
6101340.44
6101415.61
6101498.95
6101590.94
6101692.13
6101803.12
6101924.54
6102057.11
6102201.61
6102358.89
6102529.85
6102715.51
6102916.95
6103135.34
6103371.96
6103628.2
6103905.54
6104205.61
6104530.15
6104881.07
6105260.39
6105670.34
6106113.3
6106591.84
6107108.76
6107667.04
6108269.94
6108920.95
6109623.85
6110382.7
6111201.92
6112086.22
6113040.73
6114070.95
6115182.84
6116382.79
6117677.73
6119075.1
6120582.93
6122209.88
6123965.27
6125859.18
6127902.41
6130106.67
6132484.52
6135049.53
6137816.28
6140800.49
6144018.84
6101048.8
6101054.54
6101066.06
6101083.43
6101106.75
6101136.15
6101171.8
6101213.91
6101262.7
6101318.46
6101381.51
6101452.2
6101530.92
6101618.12
6101714.3
6101819.99
6101935.79
6102062.35
6102200.38
6102350.65
6102514.02
6102691.4
6102883.79
6103092.25
6103317.98
6103562.23
6103826.36
6104111.87
6104420.35
6104753.53
6105113.27
6105501.59
6105920.66
6106372.82
6106860.59
6107386.7
6107954.09
6108565.91
6109225.58
6109936.76
6110703.42
6111529.82
6112420.54
6113380.53
6114415.11
6115530.01
6116731.4
6118025.93
6119420.73
6120923.52
6122542.57
6124286.79
6126165.77
6128189.84
6130370.09
6132718.48
6135247.85
6137972.03
6140905.85
6144065.03
6101150.22
6101156.26
6101168.38
6101186.65
6101211.16
6101242.06
6101279.51
6101323.72
6101374.93
6101433.41
6101499.49
6101573.52
6101655.91
6101747.09
6101847.57
6101957.88
6102078.62
6102210.45
6102354.06
6102510.25
6102679.84
6102863.76
6103063
6103278.62
6103511.79
6103763.76
6104035.9
6104329.66
6104646.62
6104988.48
6105357.09
6105754.41
6106182.59
6106643.91
6107140.85
6107676.07
6108252.44
6108873.03
6109541.16
6110260.41
6111034.6
6111867.87
6112764.66
6113729.74
6114768.24
6115885.68
6117087.99
6118381.55
6119773.21
6121270.34
6122880.84
6124613.23
6126476.63
6128480.87
6130636.49
6132954.81
6135448.02
6138129.16
6141012.25
6144112.07
6101261.47
6101267.81
6101280.55
6101299.74
6101325.49
6101357.93
6101397.24
6101443.62
6101497.32
6101558.61
6101627.81
6101705.29
6101791.44
6101886.72
6101991.61
6102106.66
6102232.46
6102369.67
6102519
6102681.21
6102857.16
6103047.73
6103253.93
6103476.82
6103717.53
6103977.33
6104257.54
6104559.61
6104885.11
6105235.69
6105613.18
6106019.5
6106456.76
6106927.19
6107433.21
6107977.43
6108562.63
6109191.81
6109868.19
6110595.24
6111376.68
6112216.49
6113118.97
6114088.72
6115130.68
6116250.16
6117452.86
6118744.87
6120132.78
6121623.6
6123224.9
6124944.77
6126791.92
6128775.66
6130906
6133193.66
6135650.14
6138287.8
6141119.81
6144160.1
6101383.49
6101390.16
6101403.53
6101423.67
6101450.69
6101484.73
6101525.95
6101574.57
6101630.82
6101695
6101767.42
6101848.43
6101938.45
6102037.92
6102147.33
6102267.23
6102398.21
6102540.92
6102696.08
6102864.44
6103046.84
6103244.18
6103457.44
6103687.68
6103936.03
6104203.73
6104492.08
6104802.52
6105136.58
6105495.9
6105882.26
6106297.55
6106743.84
6107223.3
6107738.3
6108291.38
6108885.24
6109522.8
6110207.19
6110941.77
6111730.12
6112576.11
6113483.88
6114457.86
6115502.79
6116623.78
6117826.29
6119116.16
6120499.67
6121983.54
6123574.95
6125281.63
6127111.82
6129074.38
6131178.78
6133435.15
6135854.38
6138448.08
6141228.68
6144209.23
6101517.35
6101524.34
6101538.36
6101559.49
6101587.81
6101623.49
6101666.68
6101717.6
6101776.48
6101843.62
6101919.33
6102003.97
6102097.94
6102201.7
6102315.74
6102440.59
6102576.86
6102725.18
6102886.26
6103060.87
6103249.83
6103454.04
6103674.45
6103912.13
6104168.19
6104443.83
6104740.37
6105059.21
6105401.84
6105769.9
6106165.1
6106589.32
6107044.56
6107532.95
6108056.79
6108618.56
6109220.88
6109866.59
6110558.72
6111300.51
6112095.43
6112947.21
6113859.83
6114837.56
6115884.95
6117006.9
6118208.63
6119495.73
6120874.19
6122350.41
6123931.24
6125624.01
6127436.54
6129377.22
6131455
6133679.48
6136060.88
6138610.17
6141339.02
6144259.64
6101664.19
6101671.52
6101686.21
6101708.34
6101738.01
6101775.37
6101820.58
6101873.85
6101935.43
6102005.6
6102084.67
6102173.02
6102271.05
6102379.19
6102497.94
6102627.84
6102769.49
6102923.51
6103090.62
6103271.56
6103467.17
6103678.31
6103905.96
6104151.14
6104414.95
6104698.59
6105003.35
6105330.59
6105681.79
6106058.55
6106462.55
6106895.62
6107359.7
6107856.89
6108389.42
6108959.68
6109570.24
6110223.83
6110923.39
6111672.04
6112473.15
6113330.3
6114247.31
6115228.28
6116277.59
6117399.91
6118600.24
6119883.91
6121256.64
6122724.52
6124294.04
6125972.16
6127766.3
6129684.39
6131734.89
6133926.83
6136269.85
6138774.26
6141451
6144311.51
6101825.29
6101832.96
6101848.34
6101871.5
6101902.55
6101941.62
6101988.9
6102044.58
6102108.91
6102182.17
6102264.69
6102356.83
6102458.97
6102571.58
6102695.13
6102830.17
6102977.27
6103137.08
6103310.29
6103497.65
6103699.97
6103918.12
6104153.05
6104405.77
6104677.38
6104969.04
6105282.01
6105617.64
6105977.38
6106362.78
6106775.5
6107217.31
6107690.11
6108195.94
6108736.95
6109315.49
6109934.02
6110595.2
6111301.85
6112057
6112863.88
6113725.93
6114646.84
6115630.51
6116681.16
6117803.23
6119001.52
6120281.09
6121647.38
6123106.17
6124663.64
6126326.37
6128101.39
6129996.16
6132018.68
6134177.44
6136481.51
6138940.56
6141564.85
6144365.05
6102002.05
6102010.07
6102026.15
6102050.36
6102082.81
6102123.64
6102173.02
6102231.16
6102298.3
6102374.72
6102460.74
6102556.72
6102663.06
6102780.2
6102908.63
6103048.87
6103201.5
6103367.17
6103546.55
6103740.38
6103949.47
6104174.67
6104416.91
6104677.2
6104956.61
6105256.28
6105577.45
6105921.43
6106289.65
6106683.62
6107104.94
6107555.36
6108036.72
6108550.98
6109100.26
6109686.81
6110313.02
6110981.45
6111694.82
6112456.06
6113268.26
6114134.73
6115058.99
6116044.81
6117096.18
6118217.36
6119412.92
6120687.67
6122046.78
6123495.75
6125040.4
6126686.97
6128442.09
6130312.81
6132306.64
6134431.58
6136696.13
6139109.35
6141680.83
6144420.53
6102195.99
6102204.37
6102221.16
6102246.45
6102280.33
6102322.95
6102374.47
6102435.1
6102505.09
6102584.72
6102674.3
6102774.19
6102884.78
6103006.51
6103139.87
6103285.37
6103443.59
6103615.17
6103800.76
6104001.1
6104216.99
6104449.26
6104698.84
6104966.7
6105253.89
6105561.54
6105890.85
6106243.12
6106619.73
6107022.14
6107451.94
6107910.8
6108400.51
6108922.99
6109480.28
6110074.54
6110708.09
6111383.41
6112103.1
6112869.97
6113687
6114557.36
6115484.42
6116471.76
6117523.21
6118642.83
6119834.94
6121104.14
6122455.31
6123893.66
6125424.71
6127054.33
6128788.78
6130634.69
6132599.12
6134689.57
6136914.01
6139280.92
6141799.25
6144478.25
6102408.82
6102417.56
6102435.08
6102461.45
6102496.78
6102541.21
6102594.9
6102658.07
6102730.95
6102813.83
6102907.01
6103010.85
6103125.73
6103252.1
6103390.43
6103541.24
6103705.09
6103882.6
6104074.43
6104281.31
6104504.01
6104743.35
6105000.25
6105275.64
6105570.58
6105886.15
6106223.53
6106583.99
6106968.86
6107379.57
6107817.66
6108284.76
6108782.6
6109313.03
6109878.02
6110479.66
6111120.19
6111801.97
6112527.54
6113299.56
6114120.89
6114994.57
6115923.81
6116912.04
6117962.89
6119080.23
6120268.16
6121531.03
6122873.47
6124300.39
6125817.02
6127428.88
6129141.86
6130962.19
6132896.49
6134951.79
6137135.54
6139455.64
6141920.47
6144538.58
6102642.39
6102651.5
6102669.75
6102697.22
6102734.02
6102780.28
6102836.17
6102901.9
6102977.7
6103063.85
6103160.66
6103268.48
6103387.7
6103518.73
6103662.06
6103818.19
6103987.69
6104171.14
6104369.22
6104582.63
6104812.12
6105058.51
6105322.68
6105605.56
6105908.17
6106231.57
6106576.91
6106945.41
6107338.38
6107757.22
6108203.39
6108678.49
6109184.18
6109722.25
6110294.6
6110903.25
6111550.34
6112238.15
6112969.09
6113745.73
6114570.8
6115447.19
6116377.98
6117366.41
6118415.94
6119530.25
6120713.21
6121968.94
6123301.83
6124716.5
6126217.87
6127811.14
6129501.83
6131295.79
6133199.22
6135218.68
6137361.14
6139633.96
6142044.92
6144601.94
6102898.75
6102908.23
6102927.23
6102955.81
6102994.08
6103042.19
6103100.29
6103168.6
6103247.33
6103336.78
6103437.24
6103549.06
6103672.61
6103808.33
6103956.66
6104118.12
6104293.25
6104482.65
6104686.95
6104906.85
6105143.09
6105396.47
6105667.84
6105958.13
6106268.29
6106599.39
6106952.54
6107328.92
6107729.8
6108156.53
6108610.54
6109093.34
6109606.57
6110151.94
6110731.27
6111346.5
6111999.7
6112693.03
6113428.81
6114209.5
6115037.7
6115916.15
6116847.79
6117835.7
6118883.16
6119993.64
6121170.82
6122418.59
6123741.07
6125142.62
6126627.86
6128201.68
6129869.25
6131636.04
6133507.85
6135490.79
6137591.35
6139816.39
6142173.12
6144668.86
6103180.18
6103190.03
6103209.77
6103239.47
6103279.22
6103329.18
6103389.5
6103460.39
6103542.07
6103634.81
6103738.92
6103854.74
6103982.63
6104123.01
6104276.34
6104443.1
6104623.84
6104819.14
6105029.61
6105255.95
6105498.86
6105759.14
6106037.61
6106335.17
6106652.76
6106991.39
6107352.16
6107736.21
6108144.75
6108579.11
6109040.65
6109530.84
6110051.24
6110603.5
6111189.38
6111810.74
6112469.53
6113167.84
6113907.89
6114692.01
6115522.67
6116402.49
6117334.25
6118320.87
6119365.46
6120471.29
6121641.84
6122880.77
6124191.95
6125579.49
6127047.72
6128601.21
6130244.8
6131983.6
6133823.01
6135768.73
6137826.79
6140003.55
6142305.69
6144739.96
6103489.18
6103499.4
6103519.88
6103550.68
6103591.92
6103643.73
6103706.26
6103779.72
6103864.34
6103960.37
6104068.12
6104187.91
6104320.11
6104465.13
6104623.41
6104795.43
6104981.72
6105182.85
6105399.42
6105632.1
6105881.58
6106148.63
6106434.06
6106738.72
6107063.54
6107409.51
6107777.67
6108169.12
6108585.05
6109026.72
6109495.44
6109992.64
6110519.81
6111078.53
6111670.47
6112297.42
6112961.26
6113663.96
6114407.64
6115194.52
6116026.94
6116907.38
6117838.48
6118823.01
6119863.88
6120964.2
6122127.23
6123356.41
6124655.38
6126027.99
6127478.28
6129010.54
6130629.27
6132339.24
6134145.48
6136053.27
6138068.2
6140196.18
6142443.36
6144815.95
6103828.5
6103839.09
6103860.31
6103892.22
6103934.93
6103988.57
6104053.31
6104129.32
6104216.85
6104316.14
6104427.49
6104551.21
6104687.68
6104837.28
6105000.45
6105177.65
6105369.41
6105576.26
6105798.81
6106037.7
6106293.6
6106567.26
6106859.46
6107171.03
6107502.86
6107855.91
6108231.17
6108629.72
6109052.71
6109501.32
6109976.84
6110480.61
6111014.08
6111578.76
6112176.24
6112808.22
6113476.49
6114182.94
6114929.56
6115718.47
6116551.89
6117432.17
6118361.79
6119343.36
6120379.63
6121473.52
6122628.1
6123846.58
6125132.39
6126489.11
6127920.53
6129430.62
6131023.6
6132703.89
6134476.15
6136345.29
6138316.47
6140395.16
6142587.02
6144897.73
6104201.23
6104212.18
6104234.12
6104267.13
6104311.29
6104366.75
6104433.65
6104512.19
6104602.58
6104705.08
6104819.98
6104947.57
6105088.23
6105242.33
6105410.29
6105592.57
6105789.66
6106002.11
6106230.49
6106475.42
6106737.56
6107017.62
6107316.36
6107634.58
6107973.15
6108332.97
6108715.02
6109120.32
6109549.96
6110005.1
6110486.96
6110996.83
6111536.09
6112106.16
6112708.58
6113344.97
6114017.01
6114726.5
6115475.33
6116265.51
6117099.12
6117978.38
6118905.64
6119883.35
6120914.09
6122000.6
6123145.75
6124352.56
6125624.21
6126964.06
6128375.62
6129862.6
6131428.9
6133078.64
6134816.11
6136645.86
6138572.67
6140601.54
6142737.72
6144986.35
6104610.74
6104622.05
6104644.71
6104678.79
6104724.38
6104781.61
6104850.64
6104931.65
6105024.86
6105130.5
6105248.86
6105380.24
6105524.98
6105683.46
6105856.09
6106043.3
6106245.58
6106463.46
6106697.47
6106948.23
6107216.37
6107502.58
6107807.58
6108132.16
6108477.13
6108843.38
6109231.82
6109643.46
6110079.32
6110540.52
6111028.21
6111543.64
6112088.09
6112662.95
6113269.67
6113909.77
6114584.85
6115296.63
6116046.87
6116837.47
6117670.41
6118547.77
6119471.73
6120444.62
6121468.85
6122546.98
6123681.69
6124875.8
6126132.27
6127454.22
6128844.93
6130307.81
6131846.5
6133464.79
6135166.65
6136956.28
6138838.05
6140816.6
6142896.71
6145083.07
6105060.84
6105072.5
6105095.85
6105130.97
6105177.95
6105236.91
6105308.01
6105391.42
6105487.36
6105596.05
6105717.77
6105852.82
6106001.52
6106164.23
6106341.36
6106533.33
6106740.6
6106963.68
6107203.1
6107459.43
6107733.29
6108025.35
6108336.29
6108666.86
6109017.86
6109390.12
6109784.52
6110202.02
6110643.6
6111110.32
6111603.27
6112123.65
6112672.67
6113251.64
6113861.93
6114505
6115182.34
6115895.58
6116646.38
6117436.51
6118267.85
6119142.34
6120062.04
6121029.1
6122045.79
6123114.49
6124237.7
6125418.05
6126658.27
6127961.28
6129330.08
6130767.87
6132277.98
6133863.91
6135529.32
6137278.06
6139114.16
6141041.86
6143065.53
6145189.41
6105555.72
6105567.71
6105591.74
6105627.86
6105676.18
6105736.82
6105809.91
6105895.64
6105994.2
6106105.82
6106230.77
6106369.34
6106521.83
6106688.6
6106870.03
6107066.54
6107278.56
6107506.58
6107751.11
6108012.71
6108291.97
6108589.51
6108906.01
6109242.17
6109598.75
6109976.56
6110376.42
6110799.25
6111245.98
6111717.61
6112215.19
6112739.84
6113292.72
6113875.06
6114488.16
6115133.37
6115812.12
6116525.93
6117276.36
6118065.08
6118893.84
6119764.44
6120678.83
6121639
6122647.07
6123705.25
6124815.86
6125981.33
6127204.21
6128487.18
6129833.03
6131244.68
6132725.22
6134277.86
6135905.96
6137613.05
6139402.82
6141279.13
6143245.99
6145307.19
6106100.09
6106112.41
6106137.07
6106174.16
6106223.76
6106285.98
6106360.98
6106448.91
6106549.97
6106664.39
6106792.41
6106934.31
6107090.39
6107261
6107446.49
6107647.27
6107863.76
6108096.41
6108345.73
6108612.24
6108896.51
6109199.12
6109520.73
6109862.01
6110223.68
6110606.48
6111011.24
6111438.8
6111890.04
6112365.92
6112867.43
6113395.62
6113951.58
6114536.47
6115151.52
6115797.99
6116477.24
6117190.66
6117939.74
6118726.03
6119551.15
6120416.8
6121324.78
6122276.94
6123275.25
6124321.77
6125418.62
6126568.08
6127772.47
6129034.28
6130356.07
6131740.53
6133190.49
6134708.89
6136298.81
6137963.47
6139706.23
6141530.63
6143440.29
6145438.61
6106699.23
6106711.85
6106737.12
6106775.11
6106825.92
6106889.64
6106966.42
6107056.43
6107159.84
6107276.87
6107407.77
6107552.79
6107712.23
6107886.41
6108075.69
6108280.43
6108501.04
6108737.97
6108991.69
6109262.69
6109551.52
6109858.74
6110184.96
6110530.82
6110896.99
6111284.21
6111693.23
6112124.84
6112579.9
6113059.29
6113563.94
6114094.85
6114653.04
6115239.61
6115855.68
6116502.47
6117181.21
6117893.23
6118639.9
6119422.67
6120243.04
6121102.61
6122003.01
6122946
6123933.36
6124967.01
6126048.92
6127181.15
6128365.89
6129605.37
6130901.97
6132258.15
6133676.5
6135159.69
6136710.53
6138331.97
6140027.07
6141799.01
6143651.08
6145586.31
6107359.07
6107371.97
6107397.81
6107436.64
6107488.56
6107553.67
6107632.11
6107724.03
6107829.61
6107949.06
6108082.6
6108230.5
6108393.01
6108570.47
6108763.19
6108971.54
6109195.9
6109436.69
6109694.36
6109969.38
6110262.26
6110573.55
6110903.8
6111253.64
6111623.69
6112014.65
6112427.21
6112862.14
6113320.23
6113802.31
6114309.26
6114842
6115401.5
6115988.78
6116604.89
6117250.95
6117928.13
6118637.65
6119380.78
6120158.88
6120973.33
6121825.6
6122717.22
6123649.79
6124624.97
6125644.5
6126710.21
6127824
6128987.84
6130203.81
6131474.06
6132800.84
6134186.51
6135633.5
6137144.38