/*--------------------------------*- C++ -*----------------------------------*\
  =========                 |
  \\      /  F ield         | OpenFOAM: The Open Source CFD Toolbox
   \\    /   O peration     | Website:  https://openfoam.org
    \\  /    A nd           | Version:  11
     \\/     M anipulation  |
\*---------------------------------------------------------------------------*/
FoamFile
{
    format      ascii;
    class       volScalarField;
    location    "4.07967e-06";
    object      rho.gas;
}
// * * * * * * * * * * * * * * * * * * * * * * * * * * * * * * * * * * * * * //

dimensions      [1 -3 0 0 0 0 0];

internalField   nonuniform List<scalar> 
120000
(
247.930304
247.930344
247.930424
247.930546
247.930709
247.930918
247.931173
247.931478
247.931837
247.932255
247.932738
247.933291
247.933922
247.93464
247.935455
247.936377
247.93742
247.938599
247.939929
247.94143
247.943123
247.945034
247.94719
247.949624
247.952371
247.955475
247.958983
247.962951
247.96744
247.972525
247.978289
247.984827
247.992253
248.000694
248.010302
248.021252
248.033749
248.048034
248.06439
248.083153
248.104723
248.129579
248.158295
248.191571
248.23026
248.27541
248.328327
248.390646
248.464439
248.552356
248.657825
248.785329
248.940792
249.13213
249.370028
249.669058
250.049274
250.538526
251.175798
252.016031
248.018172
248.01829
248.018527
248.018886
248.019371
248.019989
248.020747
248.021655
248.022726
248.023972
248.025411
248.027061
248.028944
248.031086
248.033516
248.036266
248.039375
248.042885
248.046844
248.051309
248.056342
248.062016
248.068411
248.075621
248.083751
248.092922
248.10327
248.114953
248.12815
248.143065
248.159932
248.17902
248.200637
248.225137
248.252928
248.284479
248.320334
248.361119
248.407562
248.460508
248.520939
248.59
248.66903
248.759593
248.863528
248.98299
249.120523
249.279121
249.462322
249.674305
249.920011
250.205277
250.536987
250.923236
251.373495
251.898757
252.511635
253.226347
254.058482
255.024369
248.073651
248.073844
248.074232
248.074821
248.075617
248.07663
248.077874
248.079364
248.081119
248.083161
248.085518
248.088219
248.091299
248.094798
248.098762
248.103244
248.108303
248.114006
248.120429
248.12766
248.135795
248.144946
248.155239
248.166816
248.179838
248.194488
248.210973
248.229526
248.250416
248.273942
248.300449
248.330326
248.364016
248.402021
248.444915
248.49335
248.548068
248.609915
248.679858
248.758994
248.848581
248.950049
249.065034
249.195399
249.343272
249.511079
249.701582
249.917928
250.16369
250.442925
250.760222
251.12076
251.530363
251.995544
252.523556
253.122418
253.800929
254.568664
255.435933
256.413701
248.109651
248.109915
248.110446
248.111251
248.11234
248.113725
248.115425
248.117459
248.119854
248.122638
248.125846
248.129518
248.133699
248.138443
248.143809
248.149864
248.156684
248.164357
248.17298
248.182664
248.193533
248.205727
248.219404
248.234741
248.251941
248.271227
248.292854
248.317108
248.344311
248.374826
248.409062
248.447478
248.490592
248.538989
248.593326
248.654342
248.722872
248.799853
248.886343
248.983529
249.092749
249.215505
249.353487
249.508591
249.682945
249.878933
250.099225
250.346805
250.625007
250.937545
251.288552
251.682618
252.124826
252.620799
253.176739
253.799469
254.496482
255.275991
256.14698
257.119234
248.133911
248.134241
248.134904
248.135908
248.137265
248.138992
248.141109
248.14364
248.146615
248.150071
248.154047
248.158591
248.163758
248.169608
248.176213
248.18365
248.192009
248.201392
248.21191
248.223691
248.236878
248.251631
248.26813
248.286575
248.307192
248.330234
248.355982
248.384753
248.416901
248.452823
248.49296
248.537808
248.587921
248.64392
248.706494
248.776419
248.854558
248.941875
249.039447
249.148474
249.270297
249.406406
249.558464
249.728322
249.918037
250.129898
250.366443
250.630492
250.925172
251.253945
251.620644
252.029506
252.485215
252.992941
253.558388
254.187846
254.888246
255.667226
256.533197
257.495385
248.151085
248.151474
248.152256
248.153441
248.155042
248.157076
248.159568
248.162544
248.16604
248.170093
248.174751
248.180066
248.186098
248.192915
248.200596
248.209227
248.218907
248.229746
248.241867
248.25541
248.270528
248.287395
248.306204
248.32717
248.350534
248.376563
248.405556
248.437846
248.473802
248.513839
248.558413
248.608037
248.663277
248.724767
248.793209
248.869383
248.954157
249.048494
249.153464
249.270254
249.400183
249.54471
249.705455
249.884214
250.082974
250.303936
250.549536
250.822469
251.125714
251.462566
251.836663
252.252026
252.713093
253.224764
253.792447
254.422112
255.120344
255.894409
256.752322
257.702886
248.163992
248.164434
248.165325
248.166672
248.168492
248.170803
248.173631
248.177007
248.180966
248.185551
248.190812
248.196806
248.203597
248.211259
248.219874
248.229536
248.240349
248.25243
248.26591
248.280935
248.297667
248.316287
248.336996
248.36002
248.385607
248.414033
248.445606
248.480668
248.519596
248.56281
248.610776
248.664011
248.723087
248.788637
248.861365
248.942048
249.031549
249.13082
249.240918
249.363011
249.49839
249.648484
249.814873
249.999303
250.203703
250.430205
250.681165
250.959181
251.267126
251.608168
251.985807
252.403901
252.866712
253.378939
253.945767
254.572916
255.266695
256.034063
256.882693
257.821005
248.174366
248.174858
248.175847
248.177343
248.179361
248.181924
248.185057
248.188792
248.193169
248.198232
248.204034
248.210633
248.2181
248.226509
248.235949
248.246515
248.258318
248.271479
248.286133
248.302431
248.320541
248.34065
248.362964
248.387713
248.415152
248.445561
248.479255
248.516577
248.55791
248.603678
248.654349
248.71044
248.772524
248.841232
248.917265
249.001393
249.094471
249.19744
249.311341
249.437322
249.576652
249.73073
249.901101
250.089468
250.297711
250.527905
250.782336
251.063528
251.37426
251.7176
252.096928
252.515971
252.978836
253.49005
254.054604
254.677996
255.366285
256.126148
256.964937
257.890711
248.183298
248.183836
248.184916
248.186549
248.188752
248.191548
248.194962
248.19903
248.203792
248.209294
248.215591
248.222745
248.230826
248.239915
248.250101
248.261484
248.274177
248.288305
248.304006
248.321436
248.340766
248.362187
248.385908
248.412164
248.441212
248.473337
248.508854
248.548112
248.591496
248.639429
248.69238
248.750867
248.81546
248.886788
248.965546
249.052498
249.14849
249.254451
249.371408
249.50049
249.642945
249.800143
249.973599
250.164979
250.376117
250.609036
250.865963
251.149349
251.461896
251.806575
252.186662
252.605759
253.067833
253.577253
254.138823
254.757835
255.44011
256.192056
257.020717
257.933802
248.191493
248.192074
248.19324
248.195005
248.197384
248.2004
248.204082
248.208465
248.21359
248.219507
248.226271
248.233946
248.242606
248.252331
248.263215
248.27536
248.288881
248.303906
248.320577
248.339052
248.359505
248.382129
248.407138
248.434768
248.46528
248.49896
248.536127
248.577129
248.622354
248.672225
248.727211
248.787827
248.854644
248.928285
249.00944
249.098867
249.197403
249.305964
249.425565
249.557316
249.702443
249.862294
250.038351
250.232245
250.445768
250.680895
250.939794
251.224852
251.538692
251.884197
252.26454
252.683208
253.144031
253.651224
254.209416
254.823697
255.499658
256.243445
257.061806
257.962112
248.199423
248.200045
248.201297
248.203189
248.205739
248.20897
248.212913
248.217602
248.223082
248.229401
248.236618
248.244799
248.254017
248.264358
248.275914
248.288793
248.30311
248.318996
248.336595
248.356069
248.377593
248.401363
248.427596
248.45653
248.488426
248.523576
248.562297
248.604941
248.651893
248.703579
248.760467
248.823071
248.891955
248.967743
249.051118
249.142832
249.24371
249.354659
249.476678
249.610863
249.758416
249.920662
250.099053
250.295184
250.510809
250.747853
251.008429
251.294858
251.609689
251.95572
252.336022
252.753968
253.213259
253.717956
254.272519
254.88184
255.551287
256.286753
257.094695
257.982155
248.207416
248.208082
248.209418
248.211437
248.214158
248.217604
248.221806
248.2268
248.232632
248.239352
248.247019
248.2557
248.265473
248.276422
248.288645
248.302248
248.31735
248.334084
248.352598
248.373053
248.395628
248.420522
248.447952
248.47816
248.511408
248.547989
248.588222
248.632459
248.681087
248.734531
248.793256
248.857776
248.928653
249.006505
249.092009
249.18591
249.289024
249.402248
249.526565
249.663053
249.812895
249.97739
250.15796
250.356168
250.573725
250.812509
251.074578
251.36219
251.677818
252.024177
252.404239
252.821263
253.278823
253.780832
254.331581
254.935771
255.598553
256.325569
257.122997
257.997558
248.215716
248.216424
248.217846
248.219995
248.222889
248.226552
248.231017
248.236321
248.242509
248.249634
248.257756
248.266944
248.277276
248.28884
248.301733
248.316065
248.331958
248.349544
248.368975
248.390413
248.414041
248.440058
248.468685
248.500163
248.534758
248.572762
248.614497
248.660315
248.710602
248.765783
248.826323
248.892732
248.965569
249.045448
249.133039
249.229081
249.334379
249.449817
249.576365
249.715083
249.867134
250.033789
250.216444
250.416624
250.636002
250.876406
251.139841
251.4285
251.744785
252.091323
252.470991
252.886938
253.342608
253.841773
254.388556
254.987472
255.643457
256.361913
257.148742
258.010357
248.224508
248.22526
248.22677
248.229052
248.232123
248.23601
248.240745
248.246366
248.252919
248.260459
248.269047
248.278753
248.289657
248.301848
248.315426
248.330502
248.347198
248.365653
248.386015
248.408452
248.433147
248.460302
248.490138
248.5229
248.558853
248.598292
248.641538
248.688944
248.740896
248.797818
248.860172
248.928467
249.003257
249.085152
249.174816
249.272977
249.380434
249.498056
249.626798
249.767702
249.92191
250.090668
250.27534
250.477418
250.698532
250.940465
251.205165
251.494763
251.811586
252.158179
252.537323
252.952056
253.405698
253.901877
254.444557
255.038066
255.687135
256.396928
257.173081
258.021705
248.233944
248.234742
248.236343
248.238762
248.242017
248.246136
248.251149
248.257098
248.264029
248.271997
248.281065
248.291306
248.302799
248.315635
248.329917
248.345757
248.363279
248.382622
248.403939
248.427398
248.453184
248.4815
248.512569
248.546636
248.583971
248.624866
248.669644
248.718657
248.772291
248.830968
248.89515
248.965341
249.042091
249.126005
249.21774
249.318017
249.42762
249.54741
249.678323
249.821384
249.977711
250.148527
250.335164
250.539078
250.761858
251.00524
251.271117
251.561555
251.878811
252.225345
252.603842
253.017234
253.468717
253.961778
254.500223
255.0882
255.730236
256.431266
257.196668
258.032258
248.244157
248.245002
248.246698
248.24926
248.252706
248.257064
248.262368
248.268656
248.275979
248.284391
248.293958
248.304751
248.316853
248.330358
248.345366
248.361994
248.380367
248.400626
248.422925
248.447433
248.474338
248.503844
248.536175
248.571577
248.610321
248.6527
248.699036
248.749682
248.805023
248.865478
248.931507
249.00361
249.082335
249.168278
249.26209
249.364482
249.476228
249.598174
249.731242
249.876436
250.034852
250.207687
250.396241
250.601935
250.826316
251.071072
251.338042
251.629228
251.946813
252.293177
252.67091
253.082836
253.532031
254.021844
254.555924
255.138245
255.773134
256.465304
257.219879
258.042392
248.255268
248.256162
248.257958
248.260668
248.264314
248.268922
248.274526
248.281169
248.288898
248.297772
248.307856
248.319223
248.331957
248.346153
248.361914
248.379357
248.398609
248.419813
248.443123
248.468712
248.496767
248.527494
248.561119
248.597889
248.638074
248.681967
248.729893
248.7822
248.839274
248.901533
248.969431
249.043467
249.124182
249.212167
249.308064
249.412575
249.526462
249.650557
249.785764
249.93307
250.093546
250.268361
250.458786
250.666204
250.892122
251.138179
251.406157
251.697997
252.015809
252.361892
252.738743
253.149079
253.595857
254.082291
254.611878
255.188419
255.816048
256.49926
257.242934
258.052328
248.267395
248.268341
248.27024
248.273105
248.276958
248.281827
248.287745
248.294756
248.30291
248.312263
248.322884
248.334847
248.348237
248.36315
248.37969
248.397976
248.418137
248.440316
248.46467
248.491372
248.520611
248.552593
248.587546
248.625717
248.667375
248.712817
248.762362
248.816362
248.875198
248.939285
249.009077
249.085067
249.167789
249.257829
249.35582
249.462453
249.578478
249.704713
249.842045
249.991439
250.153944
250.330701
250.522949
250.732035
250.959423
251.206704
251.475605
251.768004
252.08594
252.431628
252.807476
253.216097
253.660328
254.143252
254.668216
255.238853
255.859108
256.533263
257.265962
258.062195
248.280658
248.281658
248.283664
248.286691
248.29076
248.2959
248.302146
248.30954
248.318134
248.327987
248.339166
248.351748
248.365819
248.381474
248.398822
248.417981
248.439081
248.462267
248.487697
248.515545
248.546001
248.579273
248.615588
248.655194
248.698361
248.745382
248.79658
248.852302
248.912928
248.978871
249.05058
249.128542
249.213289
249.305395
249.405487
249.514244
249.632404
249.760768
249.900207
250.051665
250.216166
250.394823
250.588844
250.799538
251.028327
251.276752
251.546487
251.839346
252.157299
252.502478
252.877201
253.283977
253.72553
254.20481
254.725019
255.289626
255.902391
256.567393
257.289042
258.072072
248.29518
248.296235
248.298353
248.301549
248.305843
248.311266
248.317852
248.325645
248.334698
248.34507
248.356829
248.370053
248.384829
248.401254
248.419438
248.439499
248.461569
248.485794
248.512334
248.541362
248.57307
248.607665
248.645377
248.686451
248.731159
248.779794
248.832674
248.890148
248.952592
249.020415
249.094063
249.174017
249.260802
249.354985
249.457182
249.568063
249.688351
249.818832
249.960357
250.11385
250.280311
250.460824
250.656563
250.868801
251.098917
251.348404
251.618881
251.912099
252.229957
252.574508
252.94798
253.35278
253.791519
254.26702
254.782341
255.340791
255.945952
256.6017
257.312225
258.082009
248.31109
248.312204
248.314439
248.31781
248.322339
248.328055
248.334995
248.343204
248.352733
248.363643
248.376003
248.389893
248.4054
248.422623
248.44167
248.462663
248.485735
248.511032
248.538713
248.568955
248.601948
248.637902
248.677043
248.719621
248.765902
248.816181
248.870775
248.930028
248.994316
249.064043
249.139649
249.221611
249.310446
249.406713
249.511019
249.62402
249.746426
249.879006
250.022594
250.17809
250.34647
250.528789
250.726188
250.939902
251.171268
251.42173
251.692852
251.986323
252.30397
252.647771
253.019862
253.422553
253.858341
254.329924
254.840222
255.392386
255.989825
256.636221
257.335546
258.092042
248.328531
248.329705
248.332062
248.335615
248.340388
248.346409
248.353717
248.362356
248.372379
248.383848
248.396832
248.411411
248.427674
248.445721
248.465661
248.487616
248.51172
248.538119
248.566975
248.598464
248.632776
248.670121
248.710726
248.754838
248.802725
248.854678
248.911014
248.972073
249.038228
249.109879
249.187461
249.271445
249.36234
249.460696
249.567109
249.682222
249.806732
249.941391
250.087013
250.244476
250.41473
250.598801
250.797797
251.012915
251.245448
251.496794
251.768458
252.062071
252.37939
252.722314
253.092891
253.493334
253.92603
254.393556
254.898692
255.444441
256.03404
256.670983
257.359033
258.102198
248.347654
248.348891
248.351373
248.355116
248.360141
248.36648
248.374169
248.383255
248.39379
248.405836
248.419466
248.434758
248.451803
248.4707
248.491561
248.514507
248.539674
248.567207
248.59727
248.630037
248.6657
248.704468
248.746568
248.792246
248.841768
248.895425
248.953528
249.016418
249.084462
249.158055
249.237628
249.323645
249.416605
249.51705
249.625564
249.742779
249.869376
250.006089
250.153712
250.313101
250.485179
250.670943
250.871467
251.087911
251.321525
251.573656
251.845758
252.139397
252.456264
252.79818
253.167106
253.565159
253.99462
254.457944
254.957781
255.496982
256.078621
256.706011
257.38271
258.112501
248.368624
248.369926
248.372539
248.376478
248.381766
248.388433
248.396517
248.406064
248.417129
248.429774
248.44407
248.460099
248.47795
248.497724
248.519533
248.543499
248.569758
248.598456
248.629756
248.663833
248.700878
248.741101
248.784726
248.831998
248.883184
248.938569
248.998465
249.063207
249.133158
249.208709
249.290284
249.37834
249.473367
249.575898
249.686506
249.805806
249.934467
250.073203
250.222789
250.384058
250.557905
250.745298
250.947278
251.164965
251.399566
251.652381
251.924808
252.218354
252.53464
252.875412
253.242546
253.638065
254.064143
254.52312
255.017514
255.550034
256.123594
256.741327
257.406599
258.122975
248.391623
248.392993
248.395741
248.399883
248.405442
248.412448
248.42094
248.430965
248.442577
248.45584
248.470824
248.487611
248.506293
248.52697
248.549754
248.574768
248.602147
248.63204
248.664606
248.700023
248.73848
248.780185
248.825364
248.874258
248.927132
248.98427
249.045979
249.112591
249.184465
249.261986
249.345571
249.435669
249.532762
249.637371
249.750057
249.871424
250.00212
250.142845
250.294351
250.457447
250.633003
250.821956
251.025311
251.244152
251.479642
251.733033
252.005669
252.298996
252.614569
252.954056
253.319253
253.712089
254.134634
254.589114
255.077922
255.603625
256.168983
256.776958
257.430726
258.133643
248.416849
248.418289
248.421176
248.425528
248.431367
248.438723
248.447637
248.458155
248.470331
248.484229
248.499922
248.517491
248.537026
248.558631
248.582416
248.608504
248.637032
248.668146
248.702007
248.738791
248.778687
248.821903
248.86866
248.919201
248.973786
249.032697
249.096238
249.164736
249.238545
249.318043
249.403642
249.49578
249.594932
249.701607
249.816353
249.939759
250.072459
250.215132
250.368508
250.533374
250.710572
250.901008
251.105654
251.325554
251.561829
251.815682
252.088405
252.381382
252.696103
253.034162
253.397272
253.78727
254.206129
254.655961
255.139036
255.657785
256.214817
256.812931
257.455118
258.144532
248.444519
248.446031
248.449062
248.45363
248.459757
248.467475
248.476823
248.487848
248.500605
248.515157
248.531578
248.549949
248.570361
248.592917
248.617727
248.644915
248.674617
248.706979
248.742161
248.780338
248.821699
248.866449
248.914809
248.967018
249.023334
249.084035
249.149422
249.219817
249.295568
249.377048
249.464658
249.558831
249.66003
249.768753
249.885535
250.01095
250.145613
250.290187
250.445379
250.611951
250.790719
250.982556
251.188401
251.409259
251.646209
251.900404
252.173085
252.465576
252.7793
253.115781
253.47665
253.863655
254.27867
254.723699
255.200891
255.712547
256.261129
256.849277
257.479805
258.155674
248.474872
248.476458
248.479638
248.484428
248.490852
248.498941
248.508735
248.520281
248.533634
248.548858
248.566025
248.585218
248.606529
248.630057
248.655916
248.684228
248.715127
248.748761
248.785288
248.824882
248.86773
248.914035
248.964018
249.017913
249.075976
249.138482
249.205725
249.278024
249.35572
249.43918
249.528796
249.624992
249.728221
249.838969
249.957756
250.085142
250.221725
250.368146
250.525092
250.6933
250.873556
251.066706
251.273651
251.49536
251.732867
251.98728
252.259784
252.551647
252.864226
253.198974
253.557442
253.941293
254.352302
254.79237
255.263529
255.76795
256.307957
256.886033
257.504825
258.167105
248.508171
248.509832
248.513164
248.518182
248.524911
248.533381
248.543633
248.555713
248.569676
248.585588
248.603519
248.623554
248.645781
248.670303
248.697232
248.726688
248.758807
248.793734
248.831627
248.872658
248.917013
248.964893
249.016514
249.07211
249.131932
249.196251
249.265357
249.339562
249.419202
249.504634
249.596245
249.694447
249.799683
249.912425
250.033181
250.162494
250.300944
250.449152
250.607784
250.777549
250.959208
251.153574
251.361515
251.58396
251.821901
252.076398
252.348584
252.639671
252.950951
253.283805
253.63971
254.02024
254.42708
254.862026
255.326996
255.824039
256.355343
256.923241
257.530218
258.178866
248.544702
248.546441
248.549929
248.555181
248.562221
248.571081
248.581801
248.594427
248.609015
248.625629
248.644341
248.665233
248.688395
248.71393
248.741946
248.772567
248.805925
248.842164
248.881441
248.923926
248.969804
249.019272
249.072545
249.129851
249.19144
249.257577
249.328546
249.404654
249.486229
249.573623
249.66721
249.767395
249.874607
249.989308
250.111989
250.243177
250.383435
250.533363
250.693604
250.864842
251.04781
251.243289
251.452112
251.675171
251.913414
252.167857
252.439579
252.729734
253.039553
253.370349
253.723521
254.100562
254.503063
254.932722
255.391347
255.880867
256.403339
256.960952
257.556035
258.191008
248.584783
248.586602
248.590248
248.595739
248.603098
248.612356
248.623553
248.636736
248.65196
248.66929
248.688796
248.710561
248.734675
248.761237
248.790358
248.822159
248.856772
248.894338
248.935014
248.978967
249.026379
249.077446
249.132378
249.191401
249.254759
249.322712
249.39554
249.473542
249.557039
249.646374
249.741914
249.844051
249.953203
250.069818
250.194373
250.327378
250.469377
250.62095
250.782715
250.955333
251.139507
251.335987
251.545573
251.769116
252.007524
252.261765
252.532868
252.821931
253.130123
253.458689
253.808954
254.182331
254.580321
255.004525
255.456646
255.938496
256.452005
256.999225
257.582335
258.203588
248.628762
248.630662
248.63447
248.640204
248.647887
248.65755
248.669233
248.682982
248.698854
248.71691
248.737223
248.759873
248.784951
248.812555
248.842794
248.875789
248.911668
248.950573
248.992658
249.038089
249.087043
249.139714
249.196307
249.257047
249.32217
249.391933
249.466608
249.546489
249.631888
249.723139
249.8206
249.92465
250.035698
250.154175
250.280545
250.4153
250.558964
250.712098
250.875295
251.049191
251.234461
251.431823
251.642042
251.865932
252.104358
252.358243
252.628566
252.916369
253.222761
253.54892
253.8961
254.265633
254.658936
255.077514
255.522967
255.996998
256.501412
257.038131
257.609187
258.216677
248.677022
248.679004
248.682977
248.688958
248.696969
248.707043
248.719219
248.733543
248.75007
248.768862
248.789992
248.813538
248.83959
248.868246
248.899613
248.93381
248.970964
249.011216
249.054717
249.101628
249.152127
249.206401
249.264654
249.327103
249.393982
249.465541
249.542046
249.623783
249.711055
249.804189
249.903531
250.00945
250.12234
250.24262
250.370737
250.507165
250.652411
250.807012
250.97154
251.146604
251.33285
251.530965
251.74168
251.96577
252.204061
252.457428
252.726802
253.01317
253.317582
253.641151
253.985061
254.350567
254.739001
255.151778
255.5904
256.056458
256.551645
257.077752
257.636674
258.230357
248.729986
248.732052
248.736191
248.742421
248.750765
248.761255
248.773929
248.788833
248.806022
248.825558
248.84751
248.871959
248.898992
248.928706
248.961207
248.996612
249.035046
249.076647
249.121563
249.169955
249.221994
249.277866
249.337769
249.401916
249.470534
249.543868
249.622177
249.705739
249.794849
249.889824
249.990999
250.098731
250.213401
250.335415
250.465201
250.603218
250.749952
250.905918
251.071666
251.247778
251.434871
251.633601
251.844665
252.068802
252.306794
252.559473
252.827721
253.112472
253.414717
253.735508
254.075957
254.437246
254.820627
255.227425
255.659046
256.11698
256.602803
257.118187
257.664895
258.244726
248.78812
248.790269
248.794576
248.801058
248.809737
248.820646
248.833821
248.849309
248.867164
248.887447
248.910227
248.935582
248.9636
248.994374
249.028011
249.064623
249.104336
249.147283
249.193611
249.243476
249.297045
249.354502
249.416038
249.481862
249.552196
249.627276
249.707356
249.792704
249.883608
249.980372
250.083322
250.192804
250.309183
250.43285
250.564219
250.70373
250.851847
251.009067
251.175913
251.352942
251.540744
251.739942
251.9512
252.175218
252.41274
252.664552
252.93149
253.214433
253.514319
253.832134
254.168927
254.525806
254.903944
255.304581
255.72903
256.178682
256.655005
257.159555
257.693966
258.2599
248.851937
248.85417
248.858646
248.86538
248.874395
248.885724
248.899402
248.915476
248.933998
248.955028
248.978636
249.004898
249.033899
249.065732
249.1005
249.138316
249.1793
249.223585
249.271313
249.322637
249.377721
249.436741
249.499887
249.56736
249.639377
249.716166
249.797973
249.88506
249.977702
250.076196
250.180854
250.29201
250.410016
250.535247
250.668101
250.808999
250.958386
251.116736
251.284549
251.462355
251.650716
251.850224
252.061509
252.285235
252.522106
252.772864
253.038298
253.319237
253.616561
253.931199
254.264134
254.616403
254.989103
255.383393
255.800497
256.241709
256.708393
257.201995
257.724028
258.276021
248.922004
248.924322
248.928966
248.935952
248.945303
248.957051
248.971231
248.987889
249.007076
249.028852
249.053285
249.080448
249.110426
249.143311
249.179203
249.218211
249.260454
249.306061
249.355171
249.407932
249.464505
249.525061
249.589784
249.65887
249.732527
249.810979
249.894461
249.983227
250.077543
250.177695
250.283983
250.396728
250.516268
250.642963
250.777193
250.91936
251.069891
251.229237
251.397873
251.576305
251.765064
251.964714
252.17585
252.3991
252.635129
252.884636
253.148364
253.427092
253.721647
254.032899
254.361768
254.709222
255.076286
255.464039
255.873619
256.306229
256.763136
257.245675
257.755246
258.293254
248.99895
249.001351
249.006162
249.013398
249.023084
249.035247
249.049926
249.067164
249.087011
249.109526
249.134775
249.162831
249.193776
249.227699
249.264699
249.304882
249.348364
249.395271
249.445737
249.499906
249.557935
249.61999
249.686248
249.7569
249.832146
249.912203
249.997297
250.087674
250.183589
250.285316
250.393144
250.507381
250.62835
250.756395
250.89188
251.035188
251.186724
251.346919
251.516223
251.695117
251.884103
252.083715
252.294515
252.517094
252.75208
253.000131
253.261941
253.538245
253.829814
254.137464
254.462051
254.80448
255.165704
255.546726
255.948603
256.372448
256.819434
257.290795
257.787822
258.311799
249.083468
249.085952
249.090928
249.098412
249.108427
249.121002
249.136173
249.153982
249.17448
249.197723
249.223776
249.25271
249.284605
249.319548
249.357634
249.398968
249.443662
249.491837
249.543625
249.599164
249.658607
249.722113
249.789855
249.862015
249.938788
250.020381
250.107014
250.19892
250.296346
250.399554
250.50882
250.624439
250.74672
250.87599
251.012595
251.156901
251.309292
251.470177
251.639982
251.819161
252.008191
252.207573
252.417838
252.639542
252.873273
253.11965
253.379324
253.65298
253.941339
254.245162
254.565247
254.902435
255.25761
255.631703
256.025692
256.440607
256.877528
257.337595
257.821994
258.331894
249.17633
249.178895
249.184033
249.19176
249.202099
249.215077
249.23073
249.2491
249.270235
249.29419
249.321029
249.350821
249.383643
249.41958
249.458724
249.501177
249.547047
249.596451
249.649516
249.706378
249.767182
249.832083
249.901245
249.974846
250.053072
250.136121
250.224205
250.317547
250.416384
250.520964
250.631554
250.748431
250.871892
251.002248
251.139827
251.284975
251.438057
251.599459
251.769585
251.948861
252.137738
252.336686
252.546205
252.766817
252.999072
253.243548
253.500854
253.77163
254.056548
254.356313
254.671668
255.003392
255.352305
255.719267
256.105181
256.510996
256.937707
257.386362
257.858047
258.353826
249.278393
249.281037
249.286333
249.294297
249.30495
249.318321
249.334443
249.353357
249.375111
249.399758
249.42736
249.457983
249.491702
249.528599
249.568765
249.612296
249.659297
249.709881
249.764171
249.822298
249.884399
249.950625
250.021134
250.096095
250.175687
250.2601
250.349536
250.444207
250.54434
250.650172
250.761955
250.879954
251.00445
251.135738
251.274128
251.419949
251.573544
251.735276
251.905528
252.084699
252.273213
252.471512
252.680062
252.899352
253.129897
253.372236
253.626935
253.894589
254.175823
254.471292
254.781682
255.107715
255.450147
255.809771
256.187419
256.583963
257.000317
257.437441
257.896328
258.37794
249.390612
249.393332
249.398781
249.406973
249.41793
249.431679
249.448253
249.467692
249.490042
249.515354
249.543688
249.575109
249.609688
249.647505
249.688646
249.733205
249.781283
249.832989
249.88844
249.947761
250.011085
250.078556
250.150324
250.226552
250.307411
250.393081
250.483754
250.579634
250.680934
250.787881
250.900714
251.019683
251.145054
251.277105
251.41613
251.562438
251.716353
251.878215
252.048383
252.227234
252.415161
252.61258
252.819926
253.037654
253.266243
253.506196
253.758037
254.02232
254.299621
254.590546
254.895729
255.215836
255.551563
255.903638
256.272826
256.659925
257.065773
257.491246
257.937249
258.404647
249.514054
249.516847
249.522441
249.530851
249.542098
249.556208
249.573213
249.593152
249.616069
249.642014
249.671044
249.703221
249.738615
249.777302
249.819364
249.864892
249.913983
249.96674
250.023275
250.083709
250.148169
250.21679
250.289718
250.367107
250.449117
250.535923
250.627706
250.724658
250.826983
250.934893
251.048615
251.168386
251.294456
251.427087
251.566554
251.713149
251.867174
252.02895
252.198811
252.37711
252.564214
252.760509
252.966401
253.182314
253.408691
253.645997
253.89472
254.15537
254.428479
254.714606
255.014334
255.328275
255.657067
256.001378
256.361908
256.739386
257.134576
257.548276
257.981308
258.434448
249.649915
249.652776
249.658507
249.667123
249.678643
249.693093
249.710504
249.730913
249.754363
249.780901
249.810583
249.843468
249.879623
249.919121
249.96204
250.008467
250.058494
250.11222
250.169753
250.231206
250.2967
250.366365
250.440338
250.518765
250.601799
250.689605
250.782353
250.880225
250.983414
251.09212
251.206556
251.326944
251.45352
251.586529
251.72623
251.872895
252.026806
252.188264
252.357579
252.535079
252.721107
252.916022
253.120198
253.334028
253.557923
253.792313
254.037646
254.294392
254.563041
254.844106
255.138123
255.445651
255.767273
256.103601
256.455271
256.822949
257.207328
257.609133
258.029108
258.467941
249.799541
249.802466
249.808324
249.81713
249.828903
249.843668
249.861455
249.882299
249.906241
249.933327
249.963609
249.997144
250.033997
250.074237
250.117938
250.165183
250.216059
250.270661
250.32909
250.391454
250.457868
250.528455
250.603343
250.682672
250.766585
250.855237
250.94879
251.047415
251.151291
251.260607
251.375564
251.496368
251.62324
251.75641
251.896119
252.04262
252.196177
252.357067
252.525581
252.702022
252.886707
253.079968
253.282151
253.493619
253.714751
253.94594
254.187601
254.440162
254.704075
254.979808
255.267849
255.568711
255.882924
256.211044